# vtk DataFile Version 3.0
vtk output
ASCII
DATASET UNSTRUCTURED_GRID
POINTS 537 float
9.630174e-02	-7.472938e-04	8.576376e-03	9.630174e-02	-7.472938e-04	7.177524e-03	1.011000e-01	6.142894e-04	6.262746e-03	1.011000e-01	6.142894e-04	5.138385e-03	9.475299e-02	-1.772318e-03	9.545722e-03	9.475299e-02	-1.772318e-03	8.031883e-03	1.102647e-01	-3.673466e-03	2.385700e-03	1.102647e-01	-3.673466e-03	1.721326e-03	9.529102e-02	-1.383698e-03	9.192425e-03	9.529102e-02	-1.383698e-03	7.720514e-03	9.454232e-02	-1.933896e-03	9.689204e-03	9.454232e-02	-1.933896e-03	8.158294e-03	9.607236e-02	-8.809896e-04	8.710877e-03	9.607236e-02	-8.809896e-04	7.296099e-03	1.018955e-01	5.806353e-04	5.930121e-03	1.018955e-01	5.806353e-04	4.845218e-03	1.020277e-01	5.681334e-04	5.875272e-03	1.020277e-01	5.681334e-04	4.796879e-03	9.551087e-02	-1.234856e-03	9.053212e-03	9.551087e-02	-1.234856e-03	7.597808e-03	1.012327e-01	6.136644e-04	6.206874e-03	1.012327e-01	6.136644e-04	5.089144e-03	9.964687e-02	4.883793e-04	6.890776e-03	9.964687e-02	4.883793e-04	5.691911e-03	1.107935e-01	-4.140373e-03	2.188299e-03	1.107935e-01	-4.140373e-03	1.547320e-03	8.982710e-02	-6.653892e-03	1.373443e-02	8.982710e-02	-6.653892e-03	1.172364e-02	8.994433e-02	-6.640000e-03	1.360517e-02	8.994433e-02	-6.640000e-03	1.160975e-02	8.977802e-02	-6.637621e-03	1.379053e-02	8.977802e-02	-6.637621e-03	1.177309e-02	8.988383e-02	-6.653793e-03	1.367126e-02	8.988383e-02	-6.653793e-03	1.166797e-02	9.000675e-02	-6.613803e-03	1.353826e-02	9.000675e-02	-6.613803e-03	1.155076e-02	9.209755e-02	-4.193004e-03	1.158574e-02	9.209755e-02	-4.193004e-03	9.829924e-03	9.012680e-02	-6.519013e-03	1.341407e-02	9.012680e-02	-6.519013e-03	1.144130e-02	9.023812e-02	-6.375783e-03	1.330444e-02	9.023812e-02	-6.375783e-03	1.134465e-02	9.030101e-02	-6.295558e-03	1.324287e-02	9.030101e-02	-6.295558e-03	1.129039e-02	9.006914e-02	-6.574531e-03	1.347277e-02	9.006914e-02	-6.574531e-03	1.149302e-02	1.114384e-01	-4.409163e-03	1.972386e-03	1.114384e-01	-4.409163e-03	1.356944e-03	9.044251e-02	-6.116642e-03	1.310521e-02	9.044251e-02	-6.116642e-03	1.116906e-02	9.069773e-02	-5.799674e-03	1.285968e-02	9.069773e-02	-5.799674e-03	1.095267e-02	1.113724e-01	-4.409176e-03	1.992650e-03	1.113724e-01	-4.409176e-03	1.374828e-03	9.089861e-02	-5.555353e-03	1.266859e-02	9.089861e-02	-5.555353e-03	1.078423e-02	9.724653e-02	-2.630677e-04	8.052267e-03	9.724653e-02	-2.630677e-04	6.715617e-03	9.151026e-02	-4.839732e-03	1.210409e-02	9.151026e-02	-4.839732e-03	1.028672e-02	1.114982e-01	-4.399534e-03	1.954438e-03	1.114982e-01	-4.399534e-03	1.341136e-03	1.115500e-01	-4.380143e-03	1.939174e-03	1.115500e-01	-4.380143e-03	1.327714e-03	1.003047e-01	5.756893e-04	6.601876e-03	1.003047e-01	5.756893e-04	5.437278e-03	1.113010e-01	-4.400029e-03	2.015053e-03	1.113010e-01	-4.400029e-03	1.394635e-03	9.562181e-02	-1.161947e-03	8.984106e-03	9.562181e-02	-1.161947e-03	7.536879e-03	1.112249e-01	-4.382004e-03	2.039743e-03	1.112249e-01	-4.382004e-03	1.416338e-03	1.115921e-01	-4.352051e-03	1.927052e-03	1.115921e-01	-4.352051e-03	1.317070e-03	1.103845e-01	-3.777596e-03	2.339944e-03	1.103845e-01	-3.777596e-03	1.680981e-03	1.000408e-01	5.467216e-04	6.716743e-03	1.000408e-01	5.467216e-04	5.538520e-03	9.194428e-02	-4.357952e-03	1.171892e-02	9.194428e-02	-4.357952e-03	9.947233e-03	1.109720e-01	-4.272262e-03	2.125045e-03	1.109720e-01	-4.272262e-03	1.491643e-03	9.485929e-02	-1.692798e-03	9.474550e-03	9.485929e-02	-1.692798e-03	7.969105e-03	9.641745e-02	-6.822392e-04	8.509615e-03	9.641745e-02	-6.822392e-04	7.118702e-03	1.108823e-01	-4.213786e-03	2.156546e-03	1.108823e-01	-4.213786e-03	1.519361e-03	9.688716e-02	-4.346536e-04	8.246266e-03	9.688716e-02	-4.346536e-04	6.886573e-03	9.225408e-02	-4.027368e-03	1.145170e-02	9.225408e-02	-4.027368e-03	9.711748e-03	1.100041e-01	-3.450059e-03	2.487331e-03	1.100041e-01	-3.450059e-03	1.810867e-03	9.241312e-02	-3.861980e-03	1.131735e-02	9.241312e-02	-3.861980e-03	9.593327e-03	9.337506e-02	-2.924698e-03	1.054218e-02	9.337506e-02	-2.924698e-03	8.910113e-03	9.990920e-02	5.292478e-04	6.774549e-03	9.990920e-02	5.292478e-04	5.589458e-03	9.352906e-02	-2.784740e-03	1.042441e-02	9.352906e-02	-2.784740e-03	8.806344e-03	1.029459e-01	4.277747e-04	5.494828e-03	1.029459e-01	4.277747e-04	4.461569e-03	9.912643e-02	3.834018e-04	7.126437e-03	9.912643e-02	3.834018e-04	5.899622e-03	1.092380e-01	-2.820838e-03	2.800900e-03	1.092380e-01	-2.820838e-03	2.087254e-03	9.396591e-02	-2.402981e-03	1.009902e-02	9.396591e-02	-2.402981e-03	8.519558e-03	1.081762e-01	-2.021837e-03	3.255365e-03	1.081762e-01	-2.021837e-03	2.487782e-03	9.423105e-02	-2.182307e-03	9.907419e-03	9.423105e-02	-2.182307e-03	8.350688e-03	1.039736e-01	1.620502e-04	5.067493e-03	1.039736e-01	1.620502e-04	4.084939e-03	9.433418e-02	-2.098724e-03	9.834328e-03	9.433418e-02	-2.098724e-03	8.286191e-03	9.823316e-02	1.286481e-04	7.549731e-03	9.823316e-02	1.286481e-04	6.272671e-03	1.076377e-01	-1.651439e-03	3.490540e-03	1.076377e-01	-1.651439e-03	2.695068e-03	9.573343e-02	-1.090080e-03	8.915306e-03	9.573343e-02	-1.090080e-03	7.476239e-03	1.111444e-01	-4.355064e-03	2.066410e-03	1.111444e-01	-4.355064e-03	1.439833e-03	9.443794e-02	-2.015914e-03	9.761528e-03	9.443794e-02	-2.015914e-03	8.222042e-03	9.464733e-02	-1.852690e-03	9.617325e-03	9.464733e-02	-1.852690e-03	8.094928e-03	1.072923e-01	-1.426935e-03	3.641841e-03	1.072923e-01	-1.426935e-03	2.828418e-03	1.049710e-01	-2.017603e-04	4.646894e-03	1.049710e-01	-2.017603e-04	3.714230e-03	9.507384e-02	-1.536408e-03	9.332919e-03	9.507384e-02	-1.536408e-03	7.844302e-03	9.736764e-02	-2.087215e-04	7.988183e-03	9.736764e-02	-2.087215e-04	6.659081e-03	1.068101e-01	-1.131018e-03	3.852614e-03	1.068101e-01	-1.131018e-03	3.014188e-03	9.518210e-02	-1.459581e-03	9.262553e-03	9.518210e-02	-1.459581e-03	7.782277e-03	1.059344e-01	-6.481157e-04	4.233554e-03	1.059344e-01	-6.481157e-04	3.349936e-03	1.060523e-01	-7.089762e-04	4.182582e-03	1.060523e-01	-7.089762e-04	3.305012e-03	9.540061e-02	-1.308781e-03	9.122707e-03	9.540061e-02	-1.308781e-03	7.659022e-03	1.065189e-01	-9.625231e-04	3.979706e-03	1.065189e-01	-9.625231e-04	3.126197e-03	9.653386e-02	-6.184184e-04	8.443267e-03	9.653386e-02	-6.184184e-04	7.060193e-03	9.584572e-02	-1.019280e-03	8.846800e-03	9.584572e-02	-1.019280e-03	7.415893e-03	1.064030e-01	-8.976700e-04	4.030214e-03	1.064030e-01	-8.976700e-04	3.170716e-03	9.595870e-02	-9.495743e-04	8.778715e-03	9.595870e-02	-9.495743e-04	7.355845e-03	1.056968e-01	-5.296069e-04	4.336048e-03	1.056968e-01	-5.296069e-04	3.440269e-03	9.618670e-02	-8.135535e-04	8.643474e-03	9.618670e-02	-8.135535e-04	7.236657e-03	1.055772e-01	-4.720125e-04	4.387543e-03	1.055772e-01	-4.720125e-04	3.485651e-03	1.062867e-01	-8.337788e-04	4.080898e-03	1.062867e-01	-8.337788e-04	3.215391e-03	9.665094e-02	-5.558607e-04	8.377186e-03	9.665094e-02	-5.558607e-04	7.002001e-03	9.496624e-02	-1.614154e-03	9.403570e-03	9.496624e-02	-1.614154e-03	7.906579e-03	9.676871e-02	-4.945957e-04	8.311581e-03	9.676871e-02	-4.945957e-04	6.944129e-03	1.054570e-01	-4.155615e-04	4.439133e-03	1.054570e-01	-4.155615e-04	3.531118e-03	9.060665e-02	-5.911945e-03	1.294692e-02	9.060665e-02	-5.911945e-03	1.102958e-02	9.700628e-02	-3.760645e-04	8.181305e-03	9.700628e-02	-3.760645e-04	6.829324e-03	1.047248e-01	-1.024708e-04	4.751398e-03	1.047248e-01	-1.024708e-04	3.806342e-03	1.014981e-01	6.064029e-04	6.095619e-03	1.014981e-01	6.064029e-04	4.991084e-03	1.046009e-01	-5.483367e-05	4.803742e-03	1.046009e-01	-5.483367e-05	3.852474e-03	9.748941e-02	-1.558515e-04	7.924318e-03	9.748941e-02	-1.558515e-04	6.602809e-03	1.053363e-01	-3.602821e-04	4.490841e-03	1.053363e-01	-3.602821e-04	3.576694e-03	1.022914e-01	5.373620e-04	5.765866e-03	1.022914e-01	5.373620e-04	4.700453e-03	9.761182e-02	-1.044884e-04	7.860907e-03	9.761182e-02	-1.044884e-04	6.546906e-03	1.044764e-01	-8.575541e-06	4.856191e-03	1.044764e-01	-8.575541e-06	3.898700e-03	9.785853e-02	-6.406648e-06	7.735380e-03	9.785853e-02	-6.406648e-06	6.436307e-03	1.037193e-01	2.382866e-04	5.173621e-03	1.037193e-01	2.382866e-04	4.178473e-03	1.058158e-01	-5.883170e-04	4.284705e-03	1.058158e-01	-5.883170e-04	3.395014e-03	1.035915e-01	2.740281e-04	5.226840e-03	1.035915e-01	2.740281e-04	4.225374e-03	9.835920e-02	1.703287e-04	7.488306e-03	9.835920e-02	1.703287e-04	6.218539e-03	1.043515e-01	3.627279e-05	4.908790e-03	1.043515e-01	3.627279e-05	3.945060e-03	9.848579e-02	2.102922e-04	7.427231e-03	9.848579e-02	2.102922e-04	6.164735e-03	1.034632e-01	3.081448e-04	5.280222e-03	1.034632e-01	3.081448e-04	4.272425e-03	9.874057e-02	2.849565e-04	7.306114e-03	9.874057e-02	2.849565e-04	6.057997e-03	1.026850e-01	4.770928e-04	5.602772e-03	1.026850e-01	4.770928e-04	4.556710e-03	9.938588e-02	4.397161e-04	7.007983e-03	9.938588e-02	4.397161e-04	5.795242e-03	1.025541e-01	4.990346e-04	5.656964e-03	1.025541e-01	4.990346e-04	4.604472e-03	1.033345e-01	3.406068e-04	5.333733e-03	1.033345e-01	3.406068e-04	4.319586e-03	9.951620e-02	4.650137e-04	6.949258e-03	9.951620e-02	4.650137e-04	5.743445e-03	1.024229e-01	5.191321e-04	5.711338e-03	1.024229e-01	5.191321e-04	4.652392e-03	1.017632e-01	5.911911e-04	5.985094e-03	1.017632e-01	5.911911e-04	4.893669e-03	1.005694e-01	5.966274e-04	6.487925e-03	1.005694e-01	5.966274e-04	5.336844e-03	1.016307e-01	5.997849e-04	6.040242e-03	1.016307e-01	5.997849e-04	4.942286e-03	1.001726e-01	5.622054e-04	6.659213e-03	1.001726e-01	5.622054e-04	5.487797e-03	1.007019e-01	6.040717e-04	6.431316e-03	1.007019e-01	6.040717e-04	5.286962e-03	1.106027e-01	-3.969832e-03	2.257984e-03	1.106027e-01	-3.969832e-03	1.608791e-03	1.008345e-01	6.094963e-04	6.374959e-03	1.008345e-01	6.094963e-04	5.237283e-03	1.013655e-01	6.110327e-04	6.151163e-03	1.013655e-01	6.110327e-04	5.040042e-03	1.009673e-01	6.129015e-04	6.318759e-03	1.009673e-01	6.129015e-04	5.187763e-03	9.712607e-02	-3.188589e-04	8.116689e-03	9.712607e-02	-3.188589e-04	6.772353e-03	9.810769e-02	8.527899e-05	7.611397e-03	9.810769e-02	8.527899e-05	6.327036e-03	1.110599e-01	-4.318788e-03	2.094925e-03	1.110599e-01	-4.318788e-03	1.465008e-03	9.773486e-02	-5.466323e-05	7.797950e-03	9.773486e-02	-5.466323e-0
[...]
POINT_DATA 537

SCALARS Density float 1
LOOKUP_TABLE default
2.102640e+01	2.127647e+01	2.103172e+01	2.116834e+01	2.095440e+01	2.120632e+01	1.845939e+01	1.841710e+01	2.096173e+01	2.121741e+01	2.094748e+01	2.119927e+01	2.100406e+01	2.125742e+01	2.097221e+01	2.109303e+01	2.094533e+01	2.106233e+01	2.097731e+01	2.123355e+01	2.102058e+01	2.115503e+01	2.112751e+01	2.129340e+01	1.712084e+01	1.707658e+01	2.044400e+01	2.038660e+01	2.056406e+01	2.059514e+01	2.047580e+01	2.036588e+01	2.055534e+01	2.054664e+01	2.047769e+01	2.054437e+01	2.107490e+01	2.127964e+01	2.115762e+01	2.129889e+01	2.134140e+01	2.149348e+01	2.134068e+01	2.149591e+01	2.070390e+01	2.081528e+01	1.566891e+01	1.637502e+01	2.132453e+01	2.148343e+01	2.127850e+01	2.144626e+01	1.553495e+01	1.615263e+01	2.124674e+01	2.142090e+01	2.107400e+01	2.130632e+01	2.114698e+01	2.133725e+01	1.624359e+01	1.698348e+01	1.730283e+01	1.800028e+01	2.107520e+01	2.122633e+01	1.566451e+01	1.617083e+01	2.097591e+01	2.123176e+01	1.591807e+01	1.630867e+01	1.843304e+01	1.904737e+01	1.827308e+01	1.822035e+01	2.110307e+01	2.126045e+01	2.109676e+01	2.129771e+01	1.670732e+01	1.679896e+01	2.094967e+01	2.120158e+01	2.102665e+01	2.127445e+01	1.688038e+01	1.689021e+01	2.105351e+01	2.129299e+01	2.106524e+01	2.127730e+01	1.875355e+01	1.873344e+01	2.105331e+01	2.126943e+01	2.097182e+01	2.121059e+01	2.111257e+01	2.127295e+01	2.095411e+01	2.119650e+01	2.082352e+01	2.092802e+01	2.111937e+01	2.129854e+01	1.930411e+01	1.933859e+01	2.093168e+01	2.118008e+01	1.971062e+01	1.978005e+01	2.093448e+01	2.118345e+01	2.066057e+01	2.075558e+01	2.094257e+01	2.119371e+01	2.110990e+01	2.131360e+01	1.987700e+01	1.995656e+01	2.097460e+01	2.122998e+01	1.620256e+01	1.648368e+01	2.094743e+01	2.119893e+01	2.095066e+01	2.120287e+01	1.997004e+01	2.005396e+01	2.047938e+01	2.057241e+01	2.094929e+01	2.120359e+01	2.107140e+01	2.130133e+01	2.009406e+01	2.018240e+01	2.095670e+01	2.121144e+01	2.029254e+01	2.038361e+01	2.026659e+01	2.035767e+01	2.096774e+01	2.122463e+01	2.016239e+01	2.025217e+01	2.102528e+01	2.127097e+01	2.098153e+01	2.123698e+01	2.019483e+01	2.028465e+01	2.099422e+01	2.124855e+01	2.034002e+01	2.043187e+01	2.101329e+01	2.126565e+01	2.035917e+01	2.045153e+01	2.021906e+01	2.030858e+01	2.103113e+01	2.127495e+01	2.094526e+01	2.119768e+01	2.104419e+01	2.128563e+01	2.038363e+01	2.047621e+01	2.128896e+01	2.145268e+01	2.106178e+01	2.129916e+01	2.052668e+01	2.061886e+01	2.099698e+01	2.112640e+01	2.054536e+01	2.063806e+01	2.107656e+01	2.130363e+01	2.040568e+01	2.049830e+01	2.090061e+01	2.101420e+01	2.109114e+01	2.131444e+01	2.056724e+01	2.066041e+01	2.110855e+01	2.132359e+01	2.070465e+01	2.080056e+01	2.031431e+01	2.040622e+01	2.072159e+01	2.081901e+01	2.110834e+01	2.130862e+01	2.058754e+01	2.068116e+01	2.111625e+01	2.131269e+01	2.074154e+01	2.084017e+01	2.111988e+01	2.130935e+01	2.085672e+01	2.096470e+01	2.111510e+01	2.128703e+01	2.086791e+01	2.097783e+01	2.075934e+01	2.085913e+01	2.111965e+01	2.128871e+01	2.088391e+01	2.099563e+01	2.098365e+01	2.110738e+01	2.105660e+01	2.120355e+01	2.098665e+01	2.111319e+01	2.109456e+01	2.124887e+01	2.105573e+01	2.119979e+01	1.782520e+01	1.776621e+01	2.105018e+01	2.119150e+01	2.101659e+01	2.114846e+01	2.104652e+01	2.118532e+01	2.107474e+01	2.130954e+01	2.111666e+01	2.132385e+01	1.647054e+01	1.665214e+01	2.110101e+01	2.132043e+01	2.083786e+01	2.094432e+01	1.809807e+01	1.804036e+01	2.080412e+01	2.090672e+01	2.132596e+01	2.148326e+01	2.045194e+01	2.054606e+01	2.050073e+01	2.059359e+01	2.112087e+01	2.128395e+01	1.747125e+01	1.741309e+01	2.112066e+01	2.133137e+01	2.111658e+01	2.129227e+01	2.112275e+01	2.130542e+01	2.112744e+01	2.131330e+01	2.068036e+01	2.077587e+01	2.111879e+01	2.131175e+01	2.063429e+01	2.072957e+01	2.012727e+01	2.021714e+01	2.125739e+01	2.142746e+01	1.863716e+01	1.860479e+01	2.117231e+01	2.135668e+01	1.899763e+01	1.900310e+01	1.888106e+01	1.887587e+01	2.001692e+01	2.010395e+01	2.094662e+01	2.119178e+01	2.119766e+01	2.137930e+01	1.993048e+01	2.001270e+01	1.908292e+01	1.909736e+01	2.120518e+01	2.138350e+01	1.919584e+01	1.922045e+01	1.965438e+01	1.971999e+01	1.937745e+01	1.942199e+01	2.112042e+01	2.131262e+01	1.977191e+01	1.984763e+01	2.100164e+01	2.123200e+01	2.097925e+01	2.121432e+01	1.943459e+01	1.948706e+01	2.111021e+01	2.130821e+01	2.103694e+01	2.125802e+01	1.949822e+01	1.955651e+01	1.956931e+01	1.963141e+01	2.101893e+01	2.124739e+01	2.114459e+01	2.100560e+01	2.106446e+01	1.816162e+01	2.108206e+01	2.105597e+01	2.112625e+01	2.092552e+01	2.089347e+01	2.110004e+01	2.099170e+01	2.113682e+01	1.684038e+01	2.013675e+01	2.039838e+01	2.008092e+01	2.032624e+01	2.036489e+01	2.110589e+01	2.113667e+01	2.132033e+01	2.131892e+01	2.065149e+01	1.676098e+01	2.130175e+01	2.126374e+01	1.647885e+01	2.123901e+01	2.117130e+01	2.115816e+01	1.738546e+01	1.836584e+01	2.106633e+01	1.641342e+01	2.109894e+01	1.646029e+01	1.934848e+01	1.795882e+01	2.110226e+01	2.112285e+01	1.669071e+01	2.106051e+01	2.114230e+01	1.670572e+01	2.115937e+01	2.110828e+01	1.849582e+01	2.110282e+01	2.105572e+01	2.111538e+01	2.104368e+01	2.075707e+01	2.114632e+01	1.914779e+01	2.103214e+01	1.961708e+01	2.103726e+01	2.058506e+01	2.104912e+01	2.116842e+01	1.979802e+01	2.109741e+01	1.654573e+01	2.105533e+01	2.106019e+01	1.989657e+01	2.040688e+01	2.106546e+01	2.116566e+01	2.002538e+01	2.107465e+01	2.022256e+01	2.019756e+01	2.109043e+01	2.009412e+01	2.113809e+01	2.110513e+01	2.012562e+01	2.111703e+01	2.026936e+01	2.113431e+01	2.028895e+01	2.014811e+01	2.114184e+01	2.105770e+01	2.115239e+01	2.031292e+01	2.126916e+01	2.116496e+01	2.045070e+01	2.096194e+01	2.046954e+01	2.116700e+01	2.033403e+01	2.084459e+01	2.117657e+01	2.049135e+01	2.118185e+01	2.062850e+01	2.024487e+01	2.064725e+01	2.116216e+01	2.051153e+01	2.116528e+01	2.066837e+01	2.115975e+01	2.079405e+01	2.113245e+01	2.080759e+01	2.068711e+01	2.113312e+01	2.082576e+01	2.094087e+01	2.104268e+01	2.094766e+01	2.108985e+01	2.103830e+01	1.750433e+01	2.102913e+01	2.098463e+01	2.102260e+01	2.117471e+01	2.117961e+01	1.662747e+01	2.118066e+01	2.077383e+01	1.777678e+01	2.073549e+01	2.130327e+01	2.038221e+01	2.042713e+01	2.112692e+01	1.715825e+01	2.118805e+01	2.113867e+01	2.115401e+01	2.116277e+01	2.060477e+01	2.116321e+01	2.056030e+01	2.006039e+01	2.124433e+01	1.835721e+01	2.117470e+01	1.878761e+01	1.865046e+01	1.994841e+01	2.104175e+01	2.119801e+01	1.985494e+01	1.889005e+01	2.120136e+01	1.902107e+01	1.955415e+01	1.924056e+01	2.113313e+01	1.968937e+01	2.107215e+01	2.105664e+01	1.931310e+01	2.113244e+01	2.109315e+01	1.938710e+01	1.946403e+01	2.108718e+01	2.094195e+01	2.118914e+01	2.096711e+01	2.120903e+01	2.099339e+01	2.122922e+01	2.123040e+01	2.140550e+01	2.131712e+01	2.147537e+01	2.142301e+01	2.157075e+01	1.985463e+01	1.993029e+01	2.008382e+01	2.016934e+01	2.025626e+01	2.034500e+01	2.044008e+01	2.053233e+01	2.062092e+01	2.071469e+01	2.079272e+01	2.089359e+01	2.093991e+01	2.105541e+01	2.108310e+01	2.123285e+01	2.104225e+01	2.105804e+01	2.107413e+01	2.122383e+01	2.129174e+01	2.140008e+01	1.976738e+01	2.000909e+01	2.018240e+01	2.036652e+01	2.054397e+01	2.072104e+01	2.088580e+01	2.107269e+01	
SCALARS X-Momentum float 1
LOOKUP_TABLE default
-1.320493e+03	-1.341537e+03	-1.321439e+03	-1.332371e+03	-1.235086e+03	-1.261900e+03	-9.152603e+02	-9.326806e+02	-1.273469e+03	-1.298702e+03	-1.223227e+03	-1.249515e+03	-1.314306e+03	-1.336039e+03	-1.283583e+03	-1.293485e+03	-1.274902e+03	-1.284987e+03	-1.283737e+03	-1.308387e+03	-1.315785e+03	-1.326463e+03	-1.355258e+03	-1.367967e+03	-1.046998e+03	-1.123288e+03	-4.519552e+02	-5.264423e+02	-8.733697e+02	-9.453161e+02	-1.610737e+02	-2.120013e+02	-7.057729e+02	-7.845397e+02	-9.806463e+02	-1.037653e+03	-1.010366e+03	-1.034243e+03	-9.441102e+02	-9.719987e+02	-8.708564e+02	-8.913714e+02	-8.637681e+02	-8.836346e+02	-1.005297e+03	-1.045394e+03	-1.867420e+03	-1.895747e+03	-8.675393e+02	-8.870197e+02	-8.843386e+02	-9.046322e+02	-1.807578e+03	-1.860983e+03	-9.012633e+02	-9.219720e+02	-1.348411e+03	-1.365618e+03	-9.526413e+02	-9.751399e+02	-1.849922e+03	-1.851134e+03	-1.703728e+03	-1.681974e+03	-1.342089e+03	-1.354094e+03	-1.711959e+03	-1.786918e+03	-1.289926e+03	-1.313976e+03	-1.606792e+03	-1.698288e+03	-1.440342e+03	-1.403805e+03	-9.197739e+02	-9.456675e+02	-1.346697e+03	-1.358783e+03	-9.950455e+02	-1.018915e+03	-1.292196e+03	-1.395135e+03	-1.242610e+03	-1.269212e+03	-1.324593e+03	-1.345143e+03	-1.164665e+03	-1.256728e+03	-1.342100e+03	-1.360763e+03	-1.024254e+03	-1.049361e+03	-9.136587e+02	-9.198247e+02	-1.039551e+03	-1.064983e+03	-1.128155e+03	-1.154363e+03	-1.349875e+03	-1.362243e+03	-1.140318e+03	-1.166856e+03	-1.236360e+03	-1.247080e+03	-1.357233e+03	-1.370050e+03	-9.242833e+02	-9.242113e+02	-1.176056e+03	-1.202832e+03	-9.643207e+02	-9.689594e+02	-1.198472e+03	-1.224777e+03	-1.188158e+03	-1.200098e+03	-1.206685e+03	-1.233323e+03	-1.357815e+03	-1.371977e+03	-9.941171e+02	-1.000607e+03	-1.296471e+03	-1.319850e+03	-1.503571e+03	-1.605403e+03	-1.214214e+03	-1.240824e+03	-1.228583e+03	-1.255194e+03	-1.014955e+03	-1.022299e+03	-1.142639e+03	-1.154545e+03	-1.256772e+03	-1.283167e+03	-1.351560e+03	-1.368010e+03	-1.041074e+03	-1.049442e+03	-1.264429e+03	-1.290389e+03	-1.091130e+03	-1.101299e+03	-1.086115e+03	-1.095953e+03	-1.278259e+03	-1.303349e+03	-1.057128e+03	-1.066395e+03	-1.329203e+03	-1.349239e+03	-1.301186e+03	-1.324343e+03	-1.063452e+03	-1.072972e+03	-1.307119e+03	-1.329627e+03	-1.107876e+03	-1.118285e+03	-1.317029e+03	-1.338532e+03	-1.112521e+03	-1.123245e+03	-1.072827e+03	-1.082487e+03	-1.332237e+03	-1.351993e+03	-1.250441e+03	-1.276678e+03	-1.336619e+03	-1.355867e+03	-1.118766e+03	-1.129553e+03	-8.764850e+02	-8.963821e+02	-1.343499e+03	-1.361857e+03	-1.157488e+03	-1.169428e+03	-1.303640e+03	-1.313767e+03	-1.161538e+03	-1.173435e+03	-1.353011e+03	-1.368901e+03	-1.127567e+03	-1.138481e+03	-1.266859e+03	-1.277147e+03	-1.355651e+03	-1.370956e+03	-1.166849e+03	-1.178543e+03	-1.357445e+03	-1.372203e+03	-1.202548e+03	-1.214152e+03	-1.099356e+03	-1.109545e+03	-1.206712e+03	-1.218161e+03	-1.357371e+03	-1.371232e+03	-1.174652e+03	-1.186279e+03	-1.358689e+03	-1.372316e+03	-1.212356e+03	-1.223543e+03	-1.358702e+03	-1.372030e+03	-1.251469e+03	-1.262027e+03	-1.355131e+03	-1.367735e+03	-1.255426e+03	-1.265894e+03	-1.220529e+03	-1.231568e+03	-1.355556e+03	-1.368269e+03	-1.260417e+03	-1.270783e+03	-1.292085e+03	-1.301974e+03	-1.340502e+03	-1.352118e+03	-1.297344e+03	-1.307306e+03	-1.343555e+03	-1.355494e+03	-1.335481e+03	-1.346875e+03	-9.445580e+02	-9.923238e+02	-1.329697e+03	-1.340985e+03	-1.311232e+03	-1.321611e+03	-1.326125e+03	-1.337293e+03	-1.345731e+03	-1.363571e+03	-1.357298e+03	-1.371786e+03	-1.401268e+03	-1.507035e+03	-1.358576e+03	-1.373451e+03	-1.244489e+03	-1.255068e+03	-9.280011e+02	-9.642549e+02	-1.231624e+03	-1.242517e+03	-8.655016e+02	-8.845555e+02	-1.138769e+03	-1.150191e+03	-1.149976e+03	-1.161907e+03	-1.353143e+03	-1.365772e+03	-9.767864e+02	-1.037716e+03	-1.357287e+03	-1.371941e+03	-1.355639e+03	-1.368285e+03	-1.358450e+03	-1.371497e+03	-1.358836e+03	-1.372048e+03	-1.195388e+03	-1.207155e+03	-1.360190e+03	-1.373622e+03	-1.184573e+03	-1.196381e+03	-1.049401e+03	-1.058059e+03	-8.935238e+02	-9.135328e+02	-9.133199e+02	-9.242816e+02	-9.424824e+02	-9.645897e+02	-9.170555e+02	-9.187946e+02	-9.156163e+02	-9.189370e+02	-1.024917e+03	-1.032745e+03	-1.164503e+03	-1.191268e+03	-9.312700e+02	-9.532277e+02	-1.004806e+03	-1.011603e+03	-9.178641e+02	-9.185341e+02	-9.179643e+02	-9.394088e+02	-9.197559e+02	-9.199309e+02	-9.562442e+02	-9.601036e+02	-9.309311e+02	-9.310771e+02	-9.670351e+02	-9.891637e+02	-9.758861e+02	-9.814496e+02	-1.086206e+03	-1.111783e+03	-1.101104e+03	-1.126953e+03	-9.366343e+02	-9.375230e+02	-9.792675e+02	-1.002406e+03	-1.057447e+03	-1.082570e+03	-9.411534e+02	-9.430780e+02	-9.471293e+02	-9.500778e+02	-1.069995e+03	-1.095843e+03	-1.347267e+03	-1.332652e+03	-1.272308e+03	-9.419398e+02	-1.307733e+03	-1.259686e+03	-1.342341e+03	-1.293427e+03	-1.285165e+03	-1.316831e+03	-1.326573e+03	-1.369094e+03	-1.181662e+03	-5.708725e+02	-9.803687e+02	-2.440032e+02	-8.275472e+02	-1.060160e+03	-1.044150e+03	-9.772048e+02	-8.948379e+02	-8.880489e+02	-1.056617e+03	-1.897829e+03	-8.926942e+02	-9.118259e+02	-1.883139e+03	-9.296301e+02	-1.368705e+03	-9.841555e+02	-1.833633e+03	-1.650303e+03	-1.354840e+03	-1.827577e+03	-1.321966e+03	-1.754218e+03	-1.365619e+03	-9.630004e+02	-1.359660e+03	-1.028732e+03	-1.470344e+03	-1.279468e+03	-1.350553e+03	-1.325949e+03	-1.364889e+03	-1.059916e+03	-9.180994e+02	-1.075471e+03	-1.164946e+03	-1.363277e+03	-1.177571e+03	-1.248460e+03	-1.371091e+03	-9.163904e+02	-1.213398e+03	-9.666573e+02	-1.234903e+03	-1.202997e+03	-1.243622e+03	-1.373538e+03	-9.999688e+02	-1.327412e+03	-1.672583e+03	-1.251063e+03	-1.265552e+03	-1.022354e+03	-1.157729e+03	-1.293137e+03	-1.370627e+03	-1.050163e+03	-1.299946e+03	-1.103403e+03	-1.097599e+03	-1.312180e+03	-1.067785e+03	-1.354378e+03	-1.331666e+03	-1.074584e+03	-1.336447e+03	-1.120381e+03	-1.344582e+03	-1.125652e+03	-1.084108e+03	-1.356908e+03	-1.286690e+03	-1.360373e+03	-1.131944e+03	-9.031516e+02	-1.365698e+03	-1.172553e+03	-1.313573e+03	-1.176541e+03	-1.371140e+03	-1.140824e+03	-1.277661e+03	-1.372793e+03	-1.181395e+03	-1.373877e+03	-1.216654e+03	-1.111570e+03	-1.220520e+03	-1.372656e+03	-1.188909e+03	-1.373640e+03	-1.225579e+03	-1.373281e+03	-1.263081e+03	-1.368715e+03	-1.266809e+03	-1.233319e+03	-1.369329e+03	-1.271496e+03	-1.301790e+03	-1.352693e+03	-1.307093e+03	-1.356228e+03	-1.347385e+03	-1.028718e+03	-1.341475e+03	-1.321532e+03	-1.337735e+03	-1.367072e+03	-1.373474e+03	-1.581007e+03	-1.375129e+03	-1.256245e+03	-9.907262e+02	-1.243943e+03	-8.894649e+02	-1.152812e+03	-1.165071e+03	-1.366913e+03	-1.084836e+03	-1.373633e+03	-1.369227e+03	-1.372630e+03	-1.373233e+03	-1.209865e+03	-1.374897e+03	-1.199013e+03	-1.058932e+03	-9.207486e+02	-9.271974e+02	-9.734277e+02	-9.124903e+02	-9.142904e+02	-1.033146e+03	-1.201937e+03	-9.618258e+02	-1.011134e+03	-9.113985e+02	-9.475627e+02	-9.124034e+02	-9.567457e+02	-9.234552e+02	-9.980053e+02	-9.800031e+02	-1.122270e+03	-1.137509e+03	-9.308036e+02	-1.011792e+03	-1.092916e+03	-9.375679e+02	-9.457440e+02	-1.106570e+03	-1.187821e+03	-1.214577e+03	-1.152319e+03	-1.179216e+03	-1.114796e+03	-1.141024e+03	-9.097544e+02	-9.310819e+02	-8.709486e+02	-8.911189e+02	-8.839880e+02	-9.073121e+02	-9.901166e+02	-9.959921e+02	-1.038443e+03	-1.046311e+03	-1.082676e+03	-1.092251e+03	-1.136397e+03	-1.147410e+03	-1.182646e+03	-1.194295e+03	-1.228875e+03	-1.239876e+03	-1.273571e+03	-1.283862e+03	-1.344427e+03	-1.356374e+03	-1.224974e+03	-1.189975e+03	-1.151598e+03	-9.390110e+02	-8.975332e+02	-9.114277e+02	-9.944320e+02	-1.046354e+03	-1.093582e+03	-1.149617e+03	-1.196719e+03	-1.241356e+03	-1.284198e+03	-1.357073e+03	
SCALARS Y-Momentum float 1
LOOKUP_TABLE default