# vtk DataFile Version 3.0
vtk output
ASCII
DATASET UNSTRUCTURED_GRID
POINTS 537 float
9.630174e-02	-7.472938e-04	8.576376e-03	9.630174e-02	-7.472938e-04	7.177524e-03	1.011000e-01	6.142894e-04	6.262746e-03	1.011000e-01	6.142894e-04	5.138385e-03	9.475299e-02	-1.772318e-03	9.545722e-03	9.475299e-02	-1.772318e-03	8.031883e-03	1.102647e-01	-3.673466e-03	2.385700e-03	1.102647e-01	-3.673466e-03	1.721326e-03	9.529102e-02	-1.383698e-03	9.192425e-03	9.529102e-02	-1.383698e-03	7.720514e-03	9.454232e-02	-1.933896e-03	9.689204e-03	9.454232e-02	-1.933896e-03	8.158294e-03	9.607236e-02	-8.809896e-04	8.710877e-03	9.607236e-02	-8.809896e-04	7.296099e-03	1.018955e-01	5.806353e-04	5.930121e-03	1.018955e-01	5.806353e-04	4.845218e-03	1.020277e-01	5.681334e-04	5.875272e-03	1.020277e-01	5.681334e-04	4.796879e-03	9.551087e-02	-1.234856e-03	9.053212e-03	9.551087e-02	-1.234856e-03	7.597808e-03	1.012327e-01	6.136644e-04	6.206874e-03	1.012327e-01	6.136644e-04	5.089144e-03	9.964687e-02	4.883793e-04	6.890776e-03	9.964687e-02	4.883793e-04	5.691911e-03	1.107935e-01	-4.140373e-03	2.188299e-03	1.107935e-01	-4.140373e-03	1.547320e-03	8.982710e-02	-6.653892e-03	1.373443e-02	8.982710e-02	-6.653892e-03	1.172364e-02	8.994433e-02	-6.640000e-03	1.360517e-02	8.994433e-02	-6.640000e-03	1.160975e-02	8.977802e-02	-6.637621e-03	1.379053e-02	8.977802e-02	-6.637621e-03	1.177309e-02	8.988383e-02	-6.653793e-03	1.367126e-02	8.988383e-02	-6.653793e-03	1.166797e-02	9.000675e-02	-6.613803e-03	1.353826e-02	9.000675e-02	-6.613803e-03	1.155076e-02	9.209755e-02	-4.193004e-03	1.158574e-02	9.209755e-02	-4.193004e-03	9.829924e-03	9.012680e-02	-6.519013e-03	1.341407e-02	9.012680e-02	-6.519013e-03	1.144130e-02	9.023812e-02	-6.375783e-03	1.330444e-02	9.023812e-02	-6.375783e-03	1.134465e-02	9.030101e-02	-6.295558e-03	1.324287e-02	9.030101e-02	-6.295558e-03	1.129039e-02	9.006914e-02	-6.574531e-03	1.347277e-02	9.006914e-02	-6.574531e-03	1.149302e-02	1.114384e-01	-4.409163e-03	1.972386e-03	1.114384e-01	-4.409163e-03	1.356944e-03	9.044251e-02	-6.116642e-03	1.310521e-02	9.044251e-02	-6.116642e-03	1.116906e-02	9.069773e-02	-5.799674e-03	1.285968e-02	9.069773e-02	-5.799674e-03	1.095267e-02	1.113724e-01	-4.409176e-03	1.992650e-03	1.113724e-01	-4.409176e-03	1.374828e-03	9.089861e-02	-5.555353e-03	1.266859e-02	9.089861e-02	-5.555353e-03	1.078423e-02	9.724653e-02	-2.630677e-04	8.052267e-03	9.724653e-02	-2.630677e-04	6.715617e-03	9.151026e-02	-4.839732e-03	1.210409e-02	9.151026e-02	-4.839732e-03	1.028672e-02	1.114982e-01	-4.399534e-03	1.954438e-03	1.114982e-01	-4.399534e-03	1.341136e-03	1.115500e-01	-4.380143e-03	1.939174e-03	1.115500e-01	-4.380143e-03	1.327714e-03	1.003047e-01	5.756893e-04	6.601876e-03	1.003047e-01	5.756893e-04	5.437278e-03	1.113010e-01	-4.400029e-03	2.015053e-03	1.113010e-01	-4.400029e-03	1.394635e-03	9.562181e-02	-1.161947e-03	8.984106e-03	9.562181e-02	-1.161947e-03	7.536879e-03	1.112249e-01	-4.382004e-03	2.039743e-03	1.112249e-01	-4.382004e-03	1.416338e-03	1.115921e-01	-4.352051e-03	1.927052e-03	1.115921e-01	-4.352051e-03	1.317070e-03	1.103845e-01	-3.777596e-03	2.339944e-03	1.103845e-01	-3.777596e-03	1.680981e-03	1.000408e-01	5.467216e-04	6.716743e-03	1.000408e-01	5.467216e-04	5.538520e-03	9.194428e-02	-4.357952e-03	1.171892e-02	9.194428e-02	-4.357952e-03	9.947233e-03	1.109720e-01	-4.272262e-03	2.125045e-03	1.109720e-01	-4.272262e-03	1.491643e-03	9.485929e-02	-1.692798e-03	9.474550e-03	9.485929e-02	-1.692798e-03	7.969105e-03	9.641745e-02	-6.822392e-04	8.509615e-03	9.641745e-02	-6.822392e-04	7.118702e-03	1.108823e-01	-4.213786e-03	2.156546e-03	1.108823e-01	-4.213786e-03	1.519361e-03	9.688716e-02	-4.346536e-04	8.246266e-03	9.688716e-02	-4.346536e-04	6.886573e-03	9.225408e-02	-4.027368e-03	1.145170e-02	9.225408e-02	-4.027368e-03	9.711748e-03	1.100041e-01	-3.450059e-03	2.487331e-03	1.100041e-01	-3.450059e-03	1.810867e-03	9.241312e-02	-3.861980e-03	1.131735e-02	9.241312e-02	-3.861980e-03	9.593327e-03	9.337506e-02	-2.924698e-03	1.054218e-02	9.337506e-02	-2.924698e-03	8.910113e-03	9.990920e-02	5.292478e-04	6.774549e-03	9.990920e-02	5.292478e-04	5.589458e-03	9.352906e-02	-2.784740e-03	1.042441e-02	9.352906e-02	-2.784740e-03	8.806344e-03	1.029459e-01	4.277747e-04	5.494828e-03	1.029459e-01	4.277747e-04	4.461569e-03	9.912643e-02	3.834018e-04	7.126437e-03	9.912643e-02	3.834018e-04	5.899622e-03	1.092380e-01	-2.820838e-03	2.800900e-03	1.092380e-01	-2.820838e-03	2.087254e-03	9.396591e-02	-2.402981e-03	1.009902e-02	9.396591e-02	-2.402981e-03	8.519558e-03	1.081762e-01	-2.021837e-03	3.255365e-03	1.081762e-01	-2.021837e-03	2.487782e-03	9.423105e-02	-2.182307e-03	9.907419e-03	9.423105e-02	-2.182307e-03	8.350688e-03	1.039736e-01	1.620502e-04	5.067493e-03	1.039736e-01	1.620502e-04	4.084939e-03	9.433418e-02	-2.098724e-03	9.834328e-03	9.433418e-02	-2.098724e-03	8.286191e-03	9.823316e-02	1.286481e-04	7.549731e-03	9.823316e-02	1.286481e-04	6.272671e-03	1.076377e-01	-1.651439e-03	3.490540e-03	1.076377e-01	-1.651439e-03	2.695068e-03	9.573343e-02	-1.090080e-03	8.915306e-03	9.573343e-02	-1.090080e-03	7.476239e-03	1.111444e-01	-4.355064e-03	2.066410e-03	1.111444e-01	-4.355064e-03	1.439833e-03	9.443794e-02	-2.015914e-03	9.761528e-03	9.443794e-02	-2.015914e-03	8.222042e-03	9.464733e-02	-1.852690e-03	9.617325e-03	9.464733e-02	-1.852690e-03	8.094928e-03	1.072923e-01	-1.426935e-03	3.641841e-03	1.072923e-01	-1.426935e-03	2.828418e-03	1.049710e-01	-2.017603e-04	4.646894e-03	1.049710e-01	-2.017603e-04	3.714230e-03	9.507384e-02	-1.536408e-03	9.332919e-03	9.507384e-02	-1.536408e-03	7.844302e-03	9.736764e-02	-2.087215e-04	7.988183e-03	9.736764e-02	-2.087215e-04	6.659081e-03	1.068101e-01	-1.131018e-03	3.852614e-03	1.068101e-01	-1.131018e-03	3.014188e-03	9.518210e-02	-1.459581e-03	9.262553e-03	9.518210e-02	-1.459581e-03	7.782277e-03	1.059344e-01	-6.481157e-04	4.233554e-03	1.059344e-01	-6.481157e-04	3.349936e-03	1.060523e-01	-7.089762e-04	4.182582e-03	1.060523e-01	-7.089762e-04	3.305012e-03	9.540061e-02	-1.308781e-03	9.122707e-03	9.540061e-02	-1.308781e-03	7.659022e-03	1.065189e-01	-9.625231e-04	3.979706e-03	1.065189e-01	-9.625231e-04	3.126197e-03	9.653386e-02	-6.184184e-04	8.443267e-03	9.653386e-02	-6.184184e-04	7.060193e-03	9.584572e-02	-1.019280e-03	8.846800e-03	9.584572e-02	-1.019280e-03	7.415893e-03	1.064030e-01	-8.976700e-04	4.030214e-03	1.064030e-01	-8.976700e-04	3.170716e-03	9.595870e-02	-9.495743e-04	8.778715e-03	9.595870e-02	-9.495743e-04	7.355845e-03	1.056968e-01	-5.296069e-04	4.336048e-03	1.056968e-01	-5.296069e-04	3.440269e-03	9.618670e-02	-8.135535e-04	8.643474e-03	9.618670e-02	-8.135535e-04	7.236657e-03	1.055772e-01	-4.720125e-04	4.387543e-03	1.055772e-01	-4.720125e-04	3.485651e-03	1.062867e-01	-8.337788e-04	4.080898e-03	1.062867e-01	-8.337788e-04	3.215391e-03	9.665094e-02	-5.558607e-04	8.377186e-03	9.665094e-02	-5.558607e-04	7.002001e-03	9.496624e-02	-1.614154e-03	9.403570e-03	9.496624e-02	-1.614154e-03	7.906579e-03	9.676871e-02	-4.945957e-04	8.311581e-03	9.676871e-02	-4.945957e-04	6.944129e-03	1.054570e-01	-4.155615e-04	4.439133e-03	1.054570e-01	-4.155615e-04	3.531118e-03	9.060665e-02	-5.911945e-03	1.294692e-02	9.060665e-02	-5.911945e-03	1.102958e-02	9.700628e-02	-3.760645e-04	8.181305e-03	9.700628e-02	-3.760645e-04	6.829324e-03	1.047248e-01	-1.024708e-04	4.751398e-03	1.047248e-01	-1.024708e-04	3.806342e-03	1.014981e-01	6.064029e-04	6.095619e-03	1.014981e-01	6.064029e-04	4.991084e-03	1.046009e-01	-5.483367e-05	4.803742e-03	1.046009e-01	-5.483367e-05	3.852474e-03	9.748941e-02	-1.558515e-04	7.924318e-03	9.748941e-02	-1.558515e-04	6.602809e-03	1.053363e-01	-3.602821e-04	4.490841e-03	1.053363e-01	-3.602821e-04	3.576694e-03	1.022914e-01	5.373620e-04	5.765866e-03	1.022914e-01	5.373620e-04	4.700453e-03	9.761182e-02	-1.044884e-04	7.860907e-03	9.761182e-02	-1.044884e-04	6.546906e-03	1.044764e-01	-8.575541e-06	4.856191e-03	1.044764e-01	-8.575541e-06	3.898700e-03	9.785853e-02	-6.406648e-06	7.735380e-03	9.785853e-02	-6.406648e-06	6.436307e-03	1.037193e-01	2.382866e-04	5.173621e-03	1.037193e-01	2.382866e-04	4.178473e-03	1.058158e-01	-5.883170e-04	4.284705e-03	1.058158e-01	-5.883170e-04	3.395014e-03	1.035915e-01	2.740281e-04	5.226840e-03	1.035915e-01	2.740281e-04	4.225374e-03	9.835920e-02	1.703287e-04	7.488306e-03	9.835920e-02	1.703287e-04	6.218539e-03	1.043515e-01	3.627279e-05	4.908790e-03	1.043515e-01	3.627279e-05	3.945060e-03	9.848579e-02	2.102922e-04	7.427231e-03	9.848579e-02	2.102922e-04	6.164735e-03	1.034632e-01	3.081448e-04	5.280222e-03	1.034632e-01	3.081448e-04	4.272425e-03	9.874057e-02	2.849565e-04	7.306114e-03	9.874057e-02	2.849565e-04	6.057997e-03	1.026850e-01	4.770928e-04	5.602772e-03	1.026850e-01	4.770928e-04	4.556710e-03	9.938588e-02	4.397161e-04	7.007983e-03	9.938588e-02	4.397161e-04	5.795242e-03	1.025541e-01	4.990346e-04	5.656964e-03	1.025541e-01	4.990346e-04	4.604472e-03	1.033345e-01	3.406068e-04	5.333733e-03	1.033345e-01	3.406068e-04	4.319586e-03	9.951620e-02	4.650137e-04	6.949258e-03	9.951620e-02	4.650137e-04	5.743445e-03	1.024229e-01	5.191321e-04	5.711338e-03	1.024229e-01	5.191321e-04	4.652392e-03	1.017632e-01	5.911911e-04	5.985094e-03	1.017632e-01	5.911911e-04	4.893669e-03	1.005694e-01	5.966274e-04	6.487925e-03	1.005694e-01	5.966274e-04	5.336844e-03	1.016307e-01	5.997849e-04	6.040242e-03	1.016307e-01	5.997849e-04	4.942286e-03	1.001726e-01	5.622054e-04	6.659213e-03	1.001726e-01	5.622054e-04	5.487797e-03	1.007019e-01	6.040717e-04	6.431316e-03	1.007019e-01	6.040717e-04	5.286962e-03	1.106027e-01	-3.969832e-03	2.257984e-03	1.106027e-01	-3.969832e-03	1.608791e-03	1.008345e-01	6.094963e-04	6.374959e-03	1.008345e-01	6.094963e-04	5.237283e-03	1.013655e-01	6.110327e-04	6.151163e-03	1.013655e-01	6.110327e-04	5.040042e-03	1.009673e-01	6.129015e-04	6.318759e-03	1.009673e-01	6.129015e-04	5.187763e-03	9.712607e-02	-3.188589e-04	8.116689e-03	9.712607e-02	-3.188589e-04	6.772353e-03	9.810769e-02	8.527899e-05	7.611397e-03	9.810769e-02	8.527899e-05	6.327036e-03	1.110599e-01	-4.318788e-03	2.094925e-03	1.110599e-01	-4.318788e-03	1.465008e-03	9.773486e-02	-5.466323e-05	7.797950e-03	9.773486e-02	-5.466323e-0
[...]
POINT_DATA 537

SCALARS Density float 1
LOOKUP_TABLE default
1.928770e+00	2.032726e+00	2.439371e+00	2.484351e+00	1.679963e+00	1.795639e+00	2.214796e+00	2.290447e+00	1.768140e+00	1.880730e+00	1.643860e+00	1.761036e+00	1.892811e+00	1.999096e+00	2.487244e+00	2.521992e+00	2.484342e+00	2.517328e+00	1.803857e+00	1.914834e+00	2.446251e+00	2.489716e+00	2.343539e+00	2.401996e+00	2.107088e+00	2.231770e+00	2.109605e-01	2.438819e-01	3.362215e-01	4.108389e-01	2.496227e-01	2.605538e-01	2.487656e-01	3.084525e-01	4.497534e-01	5.336266e-01	1.250834e+00	1.365993e+00	8.136860e-01	9.240296e-01	9.431666e-01	1.056307e+00	9.714105e-01	1.082985e+00	6.282881e-01	7.261362e-01	3.688001e+00	3.714966e+00	1.007754e+00	1.117248e+00	1.048856e+00	1.158099e+00	3.438300e+00	3.503755e+00	1.083870e+00	1.193449e+00	2.070650e+00	2.163236e+00	1.164954e+00	1.276985e+00	3.893673e+00	3.873672e+00	3.956787e+00	3.891592e+00	2.381478e+00	2.433035e+00	3.200786e+00	3.294714e+00	1.820821e+00	1.930932e+00	2.978530e+00	3.095962e+00	3.883613e+00	3.783617e+00	2.203766e+00	2.285743e+00	2.369387e+00	2.423879e+00	1.228818e+00	1.343702e+00	2.388585e+00	2.532412e+00	1.696787e+00	1.811828e+00	1.945774e+00	2.048494e+00	2.209099e+00	2.346183e+00	2.017939e+00	2.115152e+00	1.275840e+00	1.392811e+00	2.217831e+00	2.285660e+00	1.309933e+00	1.427634e+00	1.465720e+00	1.581501e+00	2.361098e+00	2.417021e+00	1.487558e+00	1.603412e+00	2.506076e+00	2.532315e+00	2.299367e+00	2.363683e+00	2.218928e+00	2.273627e+00	1.541326e+00	1.659116e+00	2.244929e+00	2.284317e+00	1.577259e+00	1.695676e+00	2.505005e+00	2.526014e+00	1.598310e+00	1.717083e+00	2.196075e+00	2.273173e+00	2.290200e+00	2.321819e+00	1.834207e+00	1.943232e+00	2.772220e+00	2.905300e+00	1.623321e+00	1.741753e+00	1.659676e+00	1.775977e+00	2.321023e+00	2.347403e+00	2.484816e+00	2.503133e+00	1.726454e+00	1.840400e+00	2.082913e+00	2.173742e+00	2.367137e+00	2.389607e+00	1.749384e+00	1.863039e+00	2.441125e+00	2.458262e+00	2.431606e+00	2.449450e+00	1.783202e+00	1.894929e+00	2.395070e+00	2.415678e+00	1.958794e+00	2.060080e+00	1.850401e+00	1.958762e+00	2.406185e+00	2.425985e+00	1.874072e+00	1.981781e+00	2.460293e+00	2.477991e+00	1.907739e+00	2.012767e+00	2.459400e+00	2.476935e+00	2.420792e+00	2.440061e+00	1.974947e+00	2.075060e+00	1.710414e+00	1.824615e+00	1.999240e+00	2.098241e+00	2.464142e+00	2.481672e+00	1.032629e+00	1.141455e+00	2.032715e+00	2.128246e+00	2.495744e+00	2.515061e+00	2.463463e+00	2.503419e+00	2.491387e+00	2.510875e+00	2.098320e+00	2.187447e+00	2.473155e+00	2.491141e+00	2.491516e+00	2.523138e+00	2.122125e+00	2.209478e+00	2.492974e+00	2.512680e+00	2.152680e+00	2.235219e+00	2.510487e+00	2.533008e+00	2.450943e+00	2.468262e+00	2.504358e+00	2.527320e+00	2.208742e+00	2.284204e+00	2.498929e+00	2.519196e+00	2.229858e+00	2.303740e+00	2.504208e+00	2.527611e+00	2.256328e+00	2.326189e+00	2.503996e+00	2.532929e+00	2.321115e+00	2.381860e+00	2.494740e+00	2.524489e+00	2.507510e+00	2.531669e+00	2.329102e+00	2.388577e+00	2.491593e+00	2.522146e+00	2.482724e+00	2.519502e+00	2.400289e+00	2.450408e+00	2.469414e+00	2.507748e+00	2.379328e+00	2.432266e+00	2.408042e+00	2.456818e+00	2.156775e+00	2.256444e+00	2.416663e+00	2.464298e+00	2.460358e+00	2.502205e+00	2.431690e+00	2.478231e+00	2.053967e+00	2.148085e+00	2.186475e+00	2.265413e+00	2.576935e+00	2.718990e+00	2.139482e+00	2.224344e+00	2.505571e+00	2.533151e+00	2.188219e+00	2.277784e+00	2.506705e+00	2.531851e+00	9.913469e-01	1.101320e+00	2.479152e+00	2.497440e+00	2.490610e+00	2.509388e+00	2.354765e+00	2.412099e+00	2.111806e+00	2.223749e+00	2.172152e+00	2.252814e+00	2.309278e+00	2.371775e+00	2.290015e+00	2.356404e+00	2.275273e+00	2.343406e+00	2.508177e+00	2.529852e+00	2.244597e+00	2.316428e+00	2.501643e+00	2.522404e+00	2.381244e+00	2.402648e+00	1.067144e+00	1.176082e+00	2.219744e+00	2.290614e+00	1.150634e+00	1.261750e+00	2.218233e+00	2.280025e+00	2.218645e+00	2.283359e+00	2.331342e+00	2.356314e+00	1.524381e+00	1.641482e+00	1.133635e+00	1.244564e+00	2.305055e+00	2.333590e+00	2.214772e+00	2.274294e+00	1.111364e+00	1.221293e+00	2.215364e+00	2.272550e+00	2.238929e+00	2.282207e+00	2.221828e+00	2.274157e+00	1.183038e+00	1.295013e+00	2.255443e+00	2.291890e+00	1.394324e+00	1.510328e+00	1.417881e+00	1.533412e+00	2.223312e+00	2.273741e+00	1.201202e+00	1.315035e+00	1.341230e+00	1.458291e+00	2.224832e+00	2.273706e+00	2.229377e+00	2.276136e+00	1.365602e+00	1.483064e+00	2.049168e+00	2.451881e+00	1.825056e+00	2.300415e+00	1.906200e+00	1.792171e+00	2.017852e+00	2.480970e+00	2.475231e+00	1.938545e+00	2.455993e+00	2.380659e+00	2.287707e+00	2.701216e-01	4.586341e-01	2.667966e-01	3.504781e-01	5.816847e-01	1.403979e+00	9.745561e-01	1.102517e+00	1.126823e+00	7.758303e-01	3.669874e+00	1.158170e+00	1.197551e+00	3.490664e+00	1.232014e+00	2.169279e+00	1.314862e+00	3.795041e+00	3.783368e+00	2.406496e+00	3.305408e+00	1.953746e+00	3.127947e+00	3.655768e+00	2.302874e+00	2.399506e+00	1.382213e+00	2.596843e+00	1.840478e+00	2.063821e+00	2.409308e+00	2.125281e+00	1.431733e+00	2.286102e+00	1.466444e+00	1.615305e+00	2.393685e+00	1.636828e+00	2.484069e+00	2.346950e+00	2.256290e+00	1.692893e+00	2.249851e+00	1.729235e+00	2.472508e+00	1.750427e+00	2.266581e+00	2.279074e+00	1.964948e+00	2.953510e+00	1.774369e+00	1.806134e+00	2.299257e+00	2.446240e+00	1.867651e+00	2.178303e+00	2.337009e+00	1.889676e+00	2.400274e+00	2.392137e+00	1.919445e+00	2.361006e+00	2.074071e+00	1.979733e+00	2.370474e+00	2.001894e+00	2.420102e+00	2.030318e+00	2.419165e+00	2.383816e+00	2.088000e+00	1.852363e+00	2.110029e+00	2.423887e+00	1.181011e+00	2.136918e+00	2.459068e+00	2.466700e+00	2.455404e+00	2.190602e+00	2.433602e+00	2.479668e+00	2.211033e+00	2.457507e+00	2.232885e+00	2.480848e+00	2.410219e+00	2.475900e+00	2.276316e+00	2.464502e+00	2.294518e+00	2.476649e+00	2.313846e+00	2.486903e+00	2.362387e+00	2.479437e+00	2.481326e+00	2.368173e+00	2.477813e+00	2.480038e+00	2.422368e+00	2.469756e+00	2.406618e+00	2.427706e+00	2.290654e+00	2.434248e+00	2.466943e+00	2.447052e+00	2.155396e+00	2.260193e+00	2.778211e+00	2.223779e+00	2.485979e+00	2.302458e+00	2.482662e+00	1.143091e+00	2.440423e+00	2.452895e+00	2.389848e+00	2.269478e+00	2.248931e+00	2.353642e+00	2.341195e+00	2.329636e+00	2.476921e+00	2.305545e+00	2.468564e+00	2.348865e+00	1.214626e+00	2.295052e+00	1.299351e+00	2.272460e+00	2.279645e+00	2.306652e+00	1.675150e+00	1.282743e+00	2.287750e+00	2.263648e+00	1.259322e+00	2.258534e+00	2.251304e+00	2.253801e+00	1.332204e+00	2.254355e+00	1.545665e+00	1.567883e+00	2.250980e+00	1.353349e+00	1.495645e+00	2.248795e+00	2.248793e+00	1.520212e+00	1.560127e+00	1.678377e+00	1.509464e+00	1.626085e+00	1.445694e+00	1.561860e+00	1.101697e+00	1.211538e+00	1.023707e+00	1.132814e+00	9.135222e-01	1.028339e+00	2.287349e+00	2.322566e+00	2.361200e+00	2.385864e+00	2.429800e+00	2.448669e+00	2.479010e+00	2.497434e+00	2.502383e+00	2.523177e+00	2.509173e+00	2.534094e+00	2.492140e+00	2.524895e+00	2.394576e+00	2.445993e+00	1.712355e+00	1.659931e+00	1.596609e+00	1.249941e+00	1.173047e+00	1.077637e+00	2.282574e+00	2.334804e+00	2.391888e+00	2.440160e+00	2.468942e+00	2.484353e+00	2.482222e+00	2.418956e+00	
SCALARS X-Momentum float 1
LOOKUP_TABLE default
-2.655574e+02	-2.777787e+02	-3.198489e+02	-3.246593e+02	-2.311936e+02	-2.460087e+02	-2.765858e+02	-2.883255e+02	-2.443018e+02	-2.583396e+02	-2.269513e+02	-2.419411e+02	-2.614988e+02	-2.741472e+02	-3.188662e+02	-3.232760e+02	-3.180789e+02	-3.225209e+02	-2.486373e+02	-2.623623e+02	-3.194653e+02	-3.241085e+02	-3.113950e+02	-3.180750e+02	-2.787960e+02	-2.890391e+02	-5.506988e+01	-6.840211e+01	-8.919421e+01	-1.064956e+02	-2.956388e+01	-4.267222e+01	-7.242352e+01	-8.834558e+01	-1.028901e+02	-1.196759e+02	-1.685980e+02	-1.839582e+02	-1.260412e+02	-1.414031e+02	-1.282009e+02	-1.427270e+02	-1.288325e+02	-1.432892e+02	-1.172877e+02	-1.334144e+02	-1.812849e+02	-1.538975e+02	-1.319864e+02	-1.464456e+02	-1.372402e+02	-1.518787e+02	-2.514768e+02	-2.269580e+02	-1.417954e+02	-1.565745e+02	-2.828656e+02	-2.929977e+02	-1.543952e+02	-1.694971e+02	-8.823632e+01	-6.283220e+01	2.135183e+00	2.097682e+01	-3.155513e+02	-3.214923e+02	-2.944658e+02	-2.756421e+02	-2.511680e+02	-2.647032e+02	-3.188484e+02	-3.063744e+02	8.340495e+01	9.454845e+01	-2.731846e+02	-2.849684e+02	-3.141980e+02	-3.203459e+02	-1.649346e+02	-1.803413e+02	-3.220657e+02	-3.271976e+02	-2.337391e+02	-2.484265e+02	-2.679349e+02	-2.799189e+02	-3.012126e+02	-3.098869e+02	-2.773784e+02	-2.882833e+02	-1.724902e+02	-1.881453e+02	-2.822421e+02	-2.937997e+02	-1.767297e+02	-1.923928e+02	-1.995508e+02	-2.154580e+02	-3.135142e+02	-3.198551e+02	-2.021692e+02	-2.181072e+02	-3.192122e+02	-3.235998e+02	-3.061545e+02	-3.132372e+02	-2.937337e+02	-3.045686e+02	-2.120056e+02	-2.278081e+02	-3.023368e+02	-3.121767e+02	-2.193182e+02	-2.347727e+02	-3.197844e+02	-3.246275e+02	-2.220285e+02	-2.373780e+02	-2.967189e+02	-3.050333e+02	-3.074458e+02	-3.167656e+02	-2.538044e+02	-2.671371e+02	-3.300634e+02	-3.240658e+02	-2.244483e+02	-2.396034e+02	-2.289341e+02	-2.438463e+02	-3.090740e+02	-3.176589e+02	-3.192874e+02	-3.247856e+02	-2.388965e+02	-2.533234e+02	-2.849838e+02	-2.948411e+02	-3.130947e+02	-3.210825e+02	-2.416178e+02	-2.558519e+02	-3.168948e+02	-3.236364e+02	-3.173799e+02	-3.244017e+02	-2.463525e+02	-2.602489e+02	-3.147869e+02	-3.223580e+02	-2.704014e+02	-2.821424e+02	-2.562730e+02	-2.694172e+02	-3.151849e+02	-3.226417e+02	-2.589267e+02	-2.718162e+02	-3.188849e+02	-3.253050e+02	-2.634023e+02	-2.758504e+02	-3.185250e+02	-3.247338e+02	-3.165299e+02	-3.238909e+02	-2.726926e+02	-2.841662e+02	-2.363981e+02	-2.509339e+02	-2.751018e+02	-2.862754e+02	-3.183140e+02	-3.243484e+02	-1.349617e+02	-1.494705e+02	-2.789793e+02	-2.896349e+02	-3.212899e+02	-3.266213e+02	-3.189874e+02	-3.234458e+02	-3.208432e+02	-3.260672e+02	-2.869268e+02	-2.964869e+02	-3.191667e+02	-3.250549e+02	-3.189477e+02	-3.234138e+02	-2.889484e+02	-2.982275e+02	-3.202860e+02	-3.254272e+02	-2.919202e+02	-3.007786e+02	-3.211697e+02	-3.259234e+02	-3.177611e+02	-3.243367e+02	-3.205308e+02	-3.252331e+02	-2.984108e+02	-3.064854e+02	-3.206622e+02	-3.257393e+02	-3.003042e+02	-3.081679e+02	-3.198312e+02	-3.245030e+02	-3.028380e+02	-3.103275e+02	-3.204438e+02	-3.248355e+02	-3.080266e+02	-3.149035e+02	-3.197545e+02	-3.241547e+02	-3.200136e+02	-3.246514e+02	-3.097709e+02	-3.165477e+02	-3.190006e+02	-3.234362e+02	-3.195132e+02	-3.239122e+02	-3.181883e+02	-3.238000e+02	-3.191268e+02	-3.235186e+02	-3.145776e+02	-3.206173e+02	-3.186305e+02	-3.240350e+02	-2.679504e+02	-2.793323e+02	-3.192031e+02	-3.244056e+02	-3.197622e+02	-3.243131e+02	-3.198716e+02	-3.248819e+02	-2.808292e+02	-2.912302e+02	-2.950031e+02	-3.035227e+02	-3.309842e+02	-3.309895e+02	-2.907547e+02	-2.998179e+02	-3.199698e+02	-3.243388e+02	-2.705340e+02	-2.822180e+02	-3.195893e+02	-3.241139e+02	-1.301390e+02	-1.445216e+02	-3.196344e+02	-3.252950e+02	-3.202573e+02	-3.256665e+02	-3.126979e+02	-3.192279e+02	-2.679973e+02	-2.789076e+02	-2.933847e+02	-3.020808e+02	-3.070373e+02	-3.139761e+02	-3.051898e+02	-3.124064e+02	-3.040528e+02	-3.114003e+02	-3.205160e+02	-3.253044e+02	-3.018802e+02	-3.095630e+02	-3.203229e+02	-3.252899e+02	-3.137615e+02	-3.215323e+02	-1.394502e+02	-1.540598e+02	-2.797561e+02	-2.913811e+02	-1.519265e+02	-1.669222e+02	-2.871684e+02	-2.984599e+02	-2.847262e+02	-2.961866e+02	-3.107111e+02	-3.189904e+02	-2.093263e+02	-2.252073e+02	-1.492620e+02	-1.643117e+02	-3.079051e+02	-3.168898e+02	-2.895126e+02	-3.006400e+02	-1.455956e+02	-1.605165e+02	-2.916555e+02	-3.026338e+02	-3.027338e+02	-3.128644e+02	-2.956949e+02	-3.063437e+02	-1.575638e+02	-1.725881e+02	-3.041451e+02	-3.136825e+02	-1.880938e+02	-2.038088e+02	-1.915004e+02	-2.073485e+02	-2.977012e+02	-3.081515e+02	-1.609621e+02	-1.762829e+02	-1.809940e+02	-1.965994e+02	-2.996878e+02	-3.100225e+02	-3.017399e+02	-3.120296e+02	-1.844863e+02	-2.003116e+02	-2.792779e+02	-3.201795e+02	-2.500832e+02	-2.922534e+02	-2.615674e+02	-2.462227e+02	-2.760268e+02	-3.185966e+02	-3.178899e+02	-2.652808e+02	-3.195321e+02	-3.151640e+02	-2.911046e+02	-7.756066e+01	-1.167415e+02	-5.171826e+01	-9.864959e+01	-1.286070e+02	-1.898990e+02	-1.482219e+02	-1.489471e+02	-1.495085e+02	-1.411279e+02	-1.312359e+02	-1.526232e+02	-1.580765e+02	-2.039349e+02	-1.627461e+02	-2.927588e+02	-1.755792e+02	-4.406612e+01	3.332339e+01	-3.179461e+02	-2.554694e+02	-2.674326e+02	-2.899451e+02	1.000765e+02	-2.889948e+02	-3.169917e+02	-1.864177e+02	-3.239497e+02	-2.523558e+02	-2.812096e+02	-3.100147e+02	-2.886460e+02	-1.942432e+02	-2.973563e+02	-1.984066e+02	-2.211149e+02	-3.166446e+02	-2.237159e+02	-3.188182e+02	-3.106980e+02	-3.065612e+02	-2.330334e+02	-3.124372e+02	-2.395507e+02	-3.200558e+02	-2.420149e+02	-3.034321e+02	-3.162827e+02	-2.696614e+02	-3.120368e+02	-2.440536e+02	-2.480321e+02	-3.164657e+02	-3.206789e+02	-2.569423e+02	-2.943772e+02	-3.191917e+02	-2.592766e+02	-3.206044e+02	-3.215494e+02	-2.633285e+02	-3.200523e+02	-2.832111e+02	-2.717531e+02	-3.202245e+02	-2.739189e+02	-3.219420e+02	-2.775426e+02	-3.212255e+02	-3.213375e+02	-2.850075e+02	-2.546916e+02	-2.868649e+02	-3.206980e+02	-1.556126e+02	-2.897966e+02	-3.223199e+02	-3.187665e+02	-3.217138e+02	-2.957973e+02	-3.212440e+02	-3.187305e+02	-2.973280e+02	-3.210190e+02	-2.995844e+02	-3.212580e+02	-3.211400e+02	-3.205780e+02	-3.047035e+02	-3.212610e+02	-3.062267e+02	-3.198472e+02	-3.081053e+02	-3.200311e+02	-3.121969e+02	-3.193975e+02	-3.199684e+02	-3.137378e+02	-3.187212e+02	-3.192047e+02	-3.199383e+02	-3.188127e+02	-3.171618e+02	-3.200151e+02	-2.829107e+02	-3.202383e+02	-3.196681e+02	-3.205501e+02	-2.911990e+02	-3.020868e+02	-3.235101e+02	-2.987605e+02	-3.195212e+02	-2.861192e+02	-3.193909e+02	-1.506613e+02	-3.212830e+02	-3.214557e+02	-3.161767e+02	-2.819499e+02	-3.007761e+02	-3.113270e+02	-3.099742e+02	-3.090703e+02	-3.206728e+02	-3.074763e+02	-3.207607e+02	-3.194267e+02	-1.601543e+02	-2.951239e+02	-1.729806e+02	-3.014530e+02	-2.995075e+02	-3.174563e+02	-2.305730e+02	-1.705050e+02	-3.160880e+02	-3.033015e+02	-1.666921e+02	-3.049558e+02	-3.133907e+02	-3.079728e+02	-1.785095e+02	-3.135578e+02	-2.096047e+02	-2.131626e+02	-3.094262e+02	-1.823775e+02	-2.024699e+02	-3.110047e+02	-3.127998e+02	-2.062901e+02	-2.152743e+02	-2.308899e+02	-2.053544e+02	-2.212613e+02	-1.952552e+02	-2.111558e+02	-1.437887e+02	-1.586698e+02	-1.335865e+02	-1.480842e+02	-1.284489e+02	-1.433328e+02	-3.093068e+02	-3.188837e+02	-3.147235e+02	-3.230009e+02	-3.182104e+02	-3.254946e+02	-3.204288e+02	-3.262430e+02	-3.213608e+02	-3.264254e+02	-3.205078e+02	-3.251470e+02	-3.194113e+02	-3.239574e+02	-3.177217e+02	-3.235807e+02	-2.358980e+02	-2.267701e+02	-2.169360e+02	-1.648763e+02	-1.542598e+02	-1.497677e+02	-3.185141e+02	-3.212570e+02	-3.227991e+02	-3.223069e+02	-3.219034e+02	-3.204461e+02	-3.193226e+02	-3.199030e+02	
SCALARS Y-Momentum float 1
LOOKUP_TABLE default