# vtk DataFile Version 3.0
vtk output
ASCII
DATASET UNSTRUCTURED_GRID
POINTS 537 float
8.977802e-02	-6.637621e-03	1.379053e-02	8.977802e-02	-6.637621e-03	1.177309e-02	8.973914e-02	-6.601684e-03	1.383691e-02	8.973914e-02	-6.601684e-03	1.181396e-02	8.971280e-02	-6.549886e-03	1.387058e-02	8.971280e-02	-6.549886e-03	1.184363e-02	8.969379e-02	-6.418756e-03	1.390243e-02	8.969379e-02	-6.418756e-03	1.187171e-02	1.116556e-01	-4.264246e-03	1.909468e-03	1.116556e-01	-4.264246e-03	1.301650e-03	8.969971e-02	-6.343404e-03	1.390180e-02	8.969971e-02	-6.343404e-03	1.187115e-02	8.971816e-02	-6.263355e-03	1.388746e-02	8.971816e-02	-6.263355e-03	1.185851e-02	8.978889e-02	-6.091456e-03	1.382163e-02	8.978889e-02	-6.091456e-03	1.180050e-02	8.997014e-02	-5.659786e-03	1.365095e-02	8.997014e-02	-5.659786e-03	1.165007e-02	8.991974e-02	-5.779549e-03	1.369859e-02	8.991974e-02	-5.779549e-03	1.169205e-02	9.008189e-02	-5.395301e-03	1.354502e-02	9.008189e-02	-5.395301e-03	1.155671e-02	9.020888e-02	-5.097045e-03	1.342446e-02	9.020888e-02	-5.097045e-03	1.145045e-02	8.969816e-02	-6.488013e-03	1.389197e-02	8.969816e-02	-6.488013e-03	1.186249e-02	1.116829e-01	-3.898528e-03	1.905415e-03	1.116829e-01	-3.898528e-03	1.298088e-03	1.116766e-01	-4.205685e-03	1.904023e-03	1.116766e-01	-4.205685e-03	1.296856e-03	9.050751e-02	-4.402823e-03	1.314194e-02	9.050751e-02	-4.402823e-03	1.120145e-02	9.027815e-02	-4.935369e-03	1.335877e-02	9.027815e-02	-4.935369e-03	1.139257e-02	1.115921e-01	-4.352051e-03	1.927052e-03	1.115921e-01	-4.352051e-03	1.317070e-03	1.116960e-01	-4.065453e-03	1.899935e-03	1.116960e-01	-4.065453e-03	1.293242e-03	1.116272e-01	-4.313589e-03	1.917207e-03	1.116272e-01	-4.313589e-03	1.308434e-03	9.085823e-02	-3.602645e-03	1.281123e-02	9.085823e-02	-3.602645e-03	1.090998e-02	1.116901e-01	-4.139160e-03	1.900857e-03	1.116901e-01	-4.139160e-03	1.294057e-03	9.059069e-02	-4.210984e-03	1.306349e-02	9.059069e-02	-4.210984e-03	1.113229e-02	1.116612e-01	-3.806552e-03	1.912637e-03	1.116612e-01	-3.806552e-03	1.304427e-03	1.116258e-01	-3.710793e-03	1.923954e-03	1.116258e-01	-3.710793e-03	1.314351e-03	1.116939e-01	-3.985081e-03	1.901368e-03	1.116939e-01	-3.985081e-03	1.294509e-03	9.123971e-02	-2.749005e-03	1.245355e-02	9.123971e-02	-2.749005e-03	1.059470e-02	9.095182e-02	-3.391712e-03	1.272310e-02	9.095182e-02	-3.391712e-03	1.083229e-02	1.112855e-01	-3.173216e-03	2.033411e-03	1.112855e-01	-3.173216e-03	1.410766e-03	1.115070e-01	-3.515754e-03	1.961235e-03	1.115070e-01	-3.515754e-03	1.347119e-03	9.143400e-02	-2.324072e-03	1.227342e-02	9.143400e-02	-2.324072e-03	1.043596e-02	1.110213e-01	-2.761614e-03	2.124558e-03	1.110213e-01	-2.761614e-03	1.491212e-03	9.171809e-02	-1.713028e-03	1.201235e-02	9.171809e-02	-1.713028e-03	1.020586e-02	1.107161e-01	-2.283670e-03	2.234491e-03	1.107161e-01	-2.283670e-03	1.588075e-03	9.180871e-02	-1.519965e-03	1.192979e-02	9.180871e-02	-1.519965e-03	1.013309e-02	9.198294e-02	-1.154869e-03	1.177187e-02	9.198294e-02	-1.154869e-03	9.993931e-03	1.102572e-01	-1.562886e-03	2.407367e-03	1.102572e-01	-1.562886e-03	1.740388e-03	1.100131e-01	-1.179912e-03	2.502301e-03	1.100131e-01	-1.179912e-03	1.824075e-03	9.214498e-02	-8.207483e-04	1.162611e-02	9.214498e-02	-8.207483e-04	9.865472e-03	1.092787e-01	-3.331691e-05	2.799108e-03	1.092787e-01	-3.331691e-05	2.085676e-03	1.113641e-01	-3.294968e-03	2.007235e-03	1.113641e-01	-3.294968e-03	1.387723e-03	9.133690e-02	-2.535417e-03	1.236323e-02	9.133690e-02	-2.535417e-03	1.051515e-02	9.253821e-02	-2.722430e-05	1.127841e-02	9.253821e-02	-2.722430e-05	9.559000e-03	1.098898e-01	-9.857928e-04	2.551337e-03	1.098898e-01	-9.857928e-04	1.867251e-03	8.982926e-02	-5.995108e-03	1.378377e-02	8.982926e-02	-5.995108e-03	1.176713e-02	1.091620e-01	1.469693e-04	2.847236e-03	1.091620e-01	1.469693e-04	2.128084e-03	9.297419e-02	8.181367e-04	1.090224e-02	9.297419e-02	8.181367e-04	9.227413e-03	9.264593e-02	1.847744e-04	1.118441e-02	9.264593e-02	1.847744e-04	9.476150e-03	1.089384e-01	4.908942e-04	2.939814e-03	1.089384e-01	4.908942e-04	2.209680e-03	1.101357e-01	-1.372658e-03	2.454348e-03	1.101357e-01	-1.372658e-03	1.781771e-03	1.086330e-01	9.569478e-04	3.066868e-03	1.086330e-01	9.569478e-04	2.321661e-03	9.232519e-02	-4.524351e-04	1.146568e-02	9.232519e-02	-4.524351e-04	9.724063e-03	9.342690e-02	1.654657e-03	1.052577e-02	9.342690e-02	1.654657e-03	8.895658e-03	9.308603e-02	1.027988e-03	1.080788e-02	9.308603e-02	1.027988e-03	9.144310e-03	1.084075e-01	1.294851e-03	3.161232e-03	1.084075e-01	1.294851e-03	2.404831e-03	1.081423e-01	1.689602e-03	3.272357e-03	1.081423e-01	1.689602e-03	2.502760e-03	9.389872e-02	2.480548e-03	1.014792e-02	9.389872e-02	2.480548e-03	8.562623e-03	9.354325e-02	1.862046e-03	1.043121e-02	9.354325e-02	1.862046e-03	8.812347e-03	1.078731e-01	2.081715e-03	3.385331e-03	1.078731e-01	2.081715e-03	2.602331e-03	1.074641e-01	2.666156e-03	3.557029e-03	1.074641e-01	2.666156e-03	2.753668e-03	9.439377e-02	3.292695e-03	9.767404e-03	9.439377e-02	3.292695e-03	8.227217e-03	9.401977e-02	2.685229e-03	1.005322e-02	9.401977e-02	2.685229e-03	8.479159e-03	1.070458e-01	3.244014e-03	3.731640e-03	1.070458e-01	3.244014e-03	2.907561e-03	1.080080e-01	1.885893e-03	3.328657e-03	1.080080e-01	1.885893e-03	2.552383e-03	9.491562e-02	4.087867e-03	9.387755e-03	9.491562e-02	4.087867e-03	7.892658e-03	1.067611e-01	3.624990e-03	3.849766e-03	1.067611e-01	3.624990e-03	3.011678e-03	9.452116e-02	3.493490e-03	9.672723e-03	9.452116e-02	3.493490e-03	8.143756e-03	1.063238e-01	4.188646e-03	4.030432e-03	1.063238e-01	4.188646e-03	3.170908e-03	9.547039e-02	4.860398e-03	9.005894e-03	9.547039e-02	4.860398e-03	7.556100e-03	1.073257e-01	2.859508e-03	3.614952e-03	1.073257e-01	2.859508e-03	2.804720e-03	9.505064e-02	4.283609e-03	9.292823e-03	9.505064e-02	4.283609e-03	7.808949e-03	1.060253e-01	4.558833e-03	4.153021e-03	1.060253e-01	4.558833e-03	3.278954e-03	1.066169e-01	3.814075e-03	3.909441e-03	1.066169e-01	3.814075e-03	3.064270e-03	1.057188e-01	4.922514e-03	4.277867e-03	1.057188e-01	4.922514e-03	3.388986e-03	9.606482e-02	5.602790e-03	8.621173e-03	9.606482e-02	5.602790e-03	7.216994e-03	9.561483e-02	5.049299e-03	8.910104e-03	9.561483e-02	5.049299e-03	7.471658e-03	1.052443e-01	5.455157e-03	4.470027e-03	1.052443e-01	5.455157e-03	3.558349e-03	9.670768e-02	6.303557e-03	8.232661e-03	9.670768e-02	6.303557e-03	6.874595e-03	1.047493e-01	5.968693e-03	4.669018e-03	1.047493e-01	5.968693e-03	3.733723e-03	1.058731e-01	4.741576e-03	4.215083e-03	1.058731e-01	4.741576e-03	3.333658e-03	9.622094e-02	5.782159e-03	8.524214e-03	9.622094e-02	5.782159e-03	7.131586e-03	1.042295e-01	6.457201e-03	4.876016e-03	1.042295e-01	6.457201e-03	3.916174e-03	9.740969e-02	6.944773e-03	7.837758e-03	9.740969e-02	6.944773e-03	6.526490e-03	9.687740e-02	6.470109e-03	8.134665e-03	9.687740e-02	6.470109e-03	6.788194e-03	1.050819e-01	5.628822e-03	4.535452e-03	1.050819e-01	5.628822e-03	3.616012e-03	1.034918e-01	7.057054e-03	5.168417e-03	1.034918e-01	7.057054e-03	4.173887e-03	9.818257e-02	7.497954e-03	7.435643e-03	9.818257e-02	7.497954e-03	6.172156e-03	9.759608e-02	7.092434e-03	7.737937e-03	9.759608e-02	7.092434e-03	6.438563e-03	1.115714e-01	-3.615182e-03	1.940974e-03	1.115714e-01	-3.615182e-03	1.329296e-03	1.031000e-01	7.326527e-03	5.323365e-03	1.031000e-01	7.326527e-03	4.310449e-03	1.026924e-01	7.571394e-03	5.484753e-03	1.026924e-01	7.571394e-03	4.452690e-03	9.903306e-02	7.920858e-03	7.024992e-03	9.903306e-02	7.920858e-03	5.810222e-03	9.838797e-02	7.617732e-03	7.333760e-03	9.838797e-02	7.617732e-03	6.082342e-03	9.002415e-02	-5.531747e-03	1.359977e-02	9.002415e-02	-5.531747e-03	1.160498e-02	1.018256e-01	7.960266e-03	5.830835e-03	1.018256e-01	7.960266e-03	4.757714e-03	9.995158e-02	8.159582e-03	6.611521e-03	9.995158e-02	8.159582e-03	5.445773e-03	9.925721e-02	8.000191e-03	6.921570e-03	9.925721e-02	8.000191e-03	5.719042e-03	1.009003e-01	8.171795e-03	6.208542e-03	1.009003e-01	8.171795e-03	5.090614e-03	1.001880e-01	8.184616e-03	6.509085e-03	1.001880e-01	8.184616e-03	5.355486e-03	1.036813e-01	6.913476e-03	5.093541e-03	1.036813e-01	6.913476e-03	4.107890e-03	1.020485e-01	7.877408e-03	5.741259e-03	1.020485e-01	7.877408e-03	4.678764e-03	1.011357e-01	8.138280e-03	6.111260e-03	1.011357e-01	8.138280e-03	5.004869e-03	1.111141e-01	-2.906512e-03	2.092164e-03	1.111141e-01	-2.906512e-03	1.462568e-03	9.206574e-02	-9.838086e-04	1.169728e-02	9.206574e-02	-9.838086e-04	9.928159e-03	1.090485e-01	3.219119e-04	2.894196e-03	1.090485e-01	3.219119e-04	2.169491e-03	1.108222e-01	-2.449808e-03	2.195819e-03	1.108222e-01	-2.449808e-03	1.553950e-03	9.042764e-02	-4.587888e-03	1.321736e-02	9.042764e-02	-4.587888e-03	1.126791e-02	9.189707e-02	-1.333701e-03	1.184958e-02	9.189707e-02	-1.333701e-03	1.006238e-02	1.104929e-01	-1.933029e-03	2.317610e-03	1.104929e-01	-1.933029e-03	1.661286e-03	1.088324e-01	6.533998e-04	2.983830e-03	1.088324e-01	6.533998e-04	2.248474e-03	1.045791e-01	6.134814e-03	4.736982e-03	1.045791e-01	6.134814e-03	3.793633e-03	1.096420e-01	-5.983730e-04	2.650946e-03	1.096420e-01	-5.983730e-04	1.955083e-03	9.067709e-02	-4.013133e-03	1.298197e-02	9.067709e-02	-4.013133e-03	1.106049e-02	9.104680e-02	-3.178338e-03	1.263384e-02	9.104680e-02	-3.178338e-03	1.075360e-02	9.243114e-02	-2.395472e-04	1.137223e-02	9.243114e-02	-2.395472e-04	9.641731e-03	9.275416e-02	3.965087e-04	1.109056e-02	9.275416e-02	3.965087e-04	9.393389e-03	9.319855e-02	1.237478e-03	1.071392e-02	9.319855e-02	1.237478e-03	9.061472e-03	1.077380e-01	2.277356e-03	3.442102e-03	1.077380e-01	2.277356e-03	2.652381e-03	9.426765e-02	3.091105e-03	9.862550e-03	9.426765e-02	3.091105e-03	8.311085e-03	9.366069e-02	2.068814e-03	1.033675e-02	9.366069e-02	2.068814e-03	8.729056e-03	9.478242e-02	3.890880e-03	9.482752e-03	9.478242e-02	3.890880e-03	7.976335e-03	9.532859e-02	4.669515e-03	9.101462e-03	9.532859e-02	4.669515e-03	7.640300e-03	1.055630e-01	5.102120e-03	4.341160e-03	1.055630e-01	5.102120e-03	3.444775e-03	9.576239e-02	5.235771e-03	8.813794e-03	9.576239e-02	5.235771e-03	7.386773e-03	9.637997e-02	5.958945e-03	8.427253e-03	9.637997e-02	5.958945e-03	7.046083e-03	1.040501e-01	6.613272e-03	4.947255e-03	1.0405
[...]
POINT_DATA 537

SCALARS Density float 1
LOOKUP_TABLE default
2.496227e-01	2.605538e-01	2.518159e-01	2.727893e-01	1.911378e-01	2.066197e-01	1.844595e-01	1.781675e-01	3.404445e+00	3.285188e+00	2.349021e-01	2.291591e-01	2.935713e-01	2.894280e-01	3.329442e-01	3.313985e-01	3.335715e-01	3.383937e-01	3.324616e-01	3.348880e-01	3.380928e-01	3.465624e-01	3.426738e-01	3.539522e-01	1.626930e-01	1.620470e-01	2.100490e+00	2.096009e+00	3.135226e+00	3.027766e+00	3.584150e-01	3.787218e-01	3.455322e-01	3.592324e-01	3.883613e+00	3.783617e+00	2.555021e+00	2.498451e+00	3.713163e+00	3.592771e+00	3.818668e-01	4.109806e-01	2.827406e+00	2.742648e+00	3.638654e-01	3.860580e-01	1.800352e+00	1.826441e+00	1.527128e+00	1.578807e+00	2.313746e+00	2.282776e+00	4.175476e-01	4.551338e-01	3.889191e-01	4.199081e-01	1.270501e+00	1.382024e+00	1.282661e+00	1.371747e+00	4.351155e-01	4.755646e-01	1.265382e+00	1.367441e+00	4.625915e-01	5.091132e-01	1.260111e+00	1.341512e+00	4.771369e-01	5.253556e-01	5.036288e-01	5.528433e-01	1.248877e+00	1.307009e+00	1.255919e+00	1.308746e+00	5.247942e-01	5.743523e-01	1.191605e+00	1.237972e+00	1.268542e+00	1.380592e+00	4.275269e-01	4.662112e-01	5.829222e-01	6.357852e-01	1.245834e+00	1.297157e+00	3.324010e-01	3.323626e-01	1.187706e+00	1.233003e+00	6.528808e-01	7.054695e-01	5.988090e-01	6.514350e-01	1.165228e+00	1.208414e+00	1.251774e+00	1.307016e+00	1.138822e+00	1.181081e+00	5.486898e-01	5.995891e-01	7.307045e-01	7.772623e-01	6.705077e-01	7.218117e-01	1.125170e+00	1.165814e+00	1.091545e+00	1.131690e+00	7.988910e-01	8.405831e-01	7.474696e-01	7.928049e-01	1.067611e+00	1.106665e+00	1.009618e+00	1.048291e+00	8.547575e-01	8.942078e-01	8.144760e-01	8.552126e-01	9.665697e-01	1.004453e+00	1.078797e+00	1.118302e+00	9.102522e-01	9.466608e-01	9.250669e-01	9.635313e-01	8.687074e-01	9.079220e-01	8.757976e-01	9.138812e-01	9.633575e-01	9.980465e-01	9.990875e-01	1.037429e+00	9.235908e-01	9.598774e-01	8.318691e-01	8.701337e-01	9.113922e-01	9.496952e-01	8.075254e-01	8.460275e-01	1.003359e+00	1.035573e+00	9.725043e-01	1.006442e+00	7.516184e-01	7.900605e-01	1.038514e+00	1.070772e+00	7.617090e-01	7.987623e-01	8.209776e-01	8.593821e-01	1.012383e+00	1.044445e+00	8.190345e-01	8.498454e-01	1.065137e+00	1.098826e+00	1.045627e+00	1.077741e+00	7.573491e-01	7.959300e-01	9.919033e-01	1.004404e+00	1.100902e+00	1.139167e+00	1.072211e+00	1.106457e+00	1.379158e+00	1.450884e+00	1.122838e+00	1.123705e+00	1.221798e+00	1.216732e+00	1.116553e+00	1.166195e+00	1.101887e+00	1.141768e+00	3.363572e-01	3.431243e-01	1.319720e+00	1.336187e+00	1.184018e+00	1.235911e+00	1.122618e+00	1.174236e+00	1.244864e+00	1.291317e+00	1.200987e+00	1.251139e+00	9.363685e-01	9.549635e-01	1.319276e+00	1.327424e+00	1.270267e+00	1.311643e+00	1.265113e+00	1.375015e+00	5.151711e-01	5.639110e-01	1.179723e+00	1.223721e+00	1.258700e+00	1.348825e+00	3.512776e-01	3.684340e-01	4.906804e-01	5.390876e-01	1.257291e+00	1.326617e+00	1.155461e+00	1.198276e+00	7.740399e-01	8.096869e-01	1.231013e+00	1.280799e+00	3.675783e-01	3.917312e-01	3.945924e-01	4.278492e-01	5.657092e-01	6.175645e-01	6.138406e-01	6.662240e-01	6.874404e-01	7.371493e-01	1.051049e+00	1.089658e+00	8.397971e-01	8.795138e-01	7.619135e-01	8.061152e-01	8.949079e-01	9.316350e-01	9.477704e-01	9.826350e-01	7.887453e-01	8.273989e-01	9.776814e-01	1.010079e+00	1.013383e+00	1.044448e+00	8.532950e-01	8.804844e-01	1.042353e+00	1.073655e+00	8.942226e-01	9.183597e-01	1.068275e+00	1.073437e+00	1.069836e+00	1.103904e+00	1.276670e+00	1.272206e+00	1.086614e+00	1.128506e+00	1.304504e+00	1.304470e+00	1.308855e+00	1.334954e+00	1.122572e+00	1.175437e+00	1.291275e+00	1.325016e+00	1.190949e+00	1.239785e+00	3.734726e-01	4.001593e-01	4.540401e-01	4.984157e-01	4.039998e-01	4.399143e-01	4.453945e-01	4.880433e-01	1.255707e+00	1.318837e+00	1.201299e+00	1.248856e+00	1.237690e+00	1.288806e+00	6.320186e-01	6.847393e-01	7.078400e-01	7.564090e-01	7.790543e-01	8.223809e-01	1.113994e+00	1.154349e+00	1.034631e+00	1.073179e+00	9.857575e-01	1.023908e+00	8.271670e-01	8.671491e-01	9.506118e-01	9.888029e-01	8.953818e-01	9.335622e-01	8.816566e-01	9.192291e-01	9.867365e-01	1.018686e+00	9.351389e-01	9.703507e-01	8.586460e-01	8.967478e-01	1.021239e+00	1.052642e+00	7.713113e-01	8.098487e-01	7.913907e-01	8.245369e-01	7.593712e-01	7.975108e-01	1.047653e+00	1.079755e+00	1.079280e+00	1.115015e+00	1.170793e+00	1.167586e+00	1.090611e+00	1.136354e+00	1.148029e+00	1.201071e+00	1.201906e+00	1.250545e+00	1.216467e+00	1.265141e+00	2.667966e-01	2.842299e-01	2.225462e-01	1.678942e-01	3.159228e+00	2.154729e-01	2.737780e-01	3.153619e-01	3.264046e-01	3.213923e-01	3.366856e-01	3.457396e-01	1.619324e-01	2.077755e+00	2.916492e+00	3.760287e-01	3.525811e-01	3.655768e+00	2.435515e+00	3.458300e+00	4.132122e-01	2.654148e+00	3.842995e-01	1.834594e+00	1.609129e+00	2.241982e+00	4.614057e-01	4.230919e-01	1.456596e+00	1.432543e+00	4.829511e-01	1.430748e+00	5.193099e-01	1.385317e+00	5.360529e-01	5.630032e-01	1.328719e+00	1.324309e+00	5.837798e-01	1.245764e+00	1.457410e+00	4.727940e-01	6.450495e-01	1.310998e+00	3.172713e-01	1.239482e+00	7.117039e-01	6.599892e-01	1.212954e+00	1.325425e+00	1.184253e+00	6.090196e-01	7.766479e-01	7.265946e-01	1.167236e+00	1.133037e+00	8.347497e-01	7.908862e-01	1.106939e+00	1.048807e+00	8.853796e-01	8.483933e-01	1.004353e+00	1.118901e+00	9.341624e-01	9.646385e-01	8.985701e-01	9.149655e-01	9.829381e-01	1.037417e+00	9.469919e-01	8.722263e-01	9.505284e-01	8.482989e-01	1.018255e+00	9.907251e-01	7.932074e-01	1.053436e+00	7.994261e-01	8.614122e-01	1.026982e+00	8.431504e-01	1.083033e+00	1.060365e+00	7.985363e-01	9.780623e-01	1.127311e+00	1.091250e+00	1.497578e+00	1.084291e+00	1.169099e+00	1.162987e+00	1.131456e+00	3.322586e-01	1.298659e+00	1.231356e+00	1.172118e+00	1.279146e+00	1.244441e+00	9.349392e-01	1.284155e+00	1.294447e+00	1.446083e+00	5.732964e-01	1.228940e+00	1.400832e+00	3.639259e-01	5.493072e-01	1.359031e+00	1.202142e+00	8.086233e-01	1.292219e+00	3.911286e-01	4.322877e-01	6.269641e-01	6.739267e-01	7.400785e-01	1.089566e+00	8.712054e-01	8.028496e-01	9.196658e-01	9.680024e-01	8.300087e-01	9.932346e-01	1.026442e+00	8.697270e-01	1.056076e+00	9.038701e-01	1.039110e+00	1.089034e+00	1.222538e+00	1.120398e+00	1.256411e+00	1.304737e+00	1.174010e+00	1.301158e+00	1.232060e+00	4.010740e-01	5.076307e-01	4.457186e-01	4.964612e-01	1.345412e+00	1.257981e+00	1.301804e+00	6.918945e-01	7.578293e-01	8.180376e-01	1.155655e+00	1.073280e+00	1.023870e+00	8.593579e-01	9.892643e-01	9.345195e-01	9.082248e-01	1.001500e+00	9.563264e-01	8.981918e-01	1.034886e+00	8.127239e-01	8.207141e-01	7.994342e-01	1.063003e+00	1.101500e+00	1.123346e+00	1.131078e+00	1.198756e+00	1.241866e+00	1.275439e+00	3.250778e-01	3.220422e-01	3.306028e-01	3.315814e-01	3.375517e-01	3.473308e-01	3.449716e-01	3.602735e-01	5.318255e-01	5.821854e-01	1.123282e+00	1.165069e+00	1.143287e+00	1.185893e+00	1.252006e+00	1.324642e+00	1.254480e+00	1.347043e+00	1.254093e+00	1.362330e+00	1.216313e+00	1.318778e+00	3.056197e-01	3.172746e-01	3.383687e-01	3.547793e-01	5.917982e-01	1.168071e+00	1.189820e+00	1.360528e+00	1.401683e+00	1.433035e+00	1.389993e+00	
SCALARS X-Momentum float 1
LOOKUP_TABLE default
-2.956388e+01	-4.267222e+01	-2.843862e+00	-1.096044e+01	1.675501e+00	-1.570706e-01	-1.192516e+01	-1.223277e+01	1.350682e+02	1.324227e+02	-2.226025e+01	-2.273687e+01	-3.265482e+01	-3.344345e+01	-3.892934e+01	-4.017046e+01	-4.002944e+01	-4.184352e+01	-3.940538e+01	-4.096630e+01	-4.090026e+01	-4.299187e+01	-4.190107e+01	-4.425277e+01	-3.961881e+00	-4.444808e+00	-3.054259e+01	-3.184928e+01	1.179419e+02	1.130509e+02	-4.530379e+01	-4.852430e+01	-4.248923e+01	-4.507880e+01	8.340495e+01	9.454845e+01	4.369288e+01	4.083085e+01	1.380386e+02	1.411617e+02	-4.929766e+01	-5.333468e+01	8.639969e+01	8.212490e+01	-4.592543e+01	-4.930050e+01	-6.979583e+01	-7.031060e+01	-1.057942e+02	-1.068299e+02	4.499475e+00	2.553509e+00	-5.452994e+01	-5.926711e+01	-5.016482e+01	-5.436893e+01	-1.607537e+02	-1.680022e+02	-1.381610e+02	-1.424373e+02	-5.666931e+01	-6.176541e+01	-1.653368e+02	-1.739207e+02	-6.095480e+01	-6.653317e+01	-1.673294e+02	-1.760845e+02	-6.348461e+01	-6.908469e+01	-6.665151e+01	-7.231082e+01	-1.689688e+02	-1.771309e+02	-1.721554e+02	-1.798637e+02	-6.901976e+01	-7.479552e+01	-1.735379e+02	-1.810107e+02	-1.569232e+02	-1.639610e+02	-5.562917e+01	-6.050684e+01	-7.778708e+01	-8.371298e+01	-1.723127e+02	-1.799557e+02	-3.898365e+01	-4.030163e+01	-1.741057e+02	-1.814838e+02	-8.717236e+01	-9.299389e+01	-7.953710e+01	-8.546040e+01	-1.740563e+02	-1.812579e+02	-1.699412e+02	-1.779502e+02	-1.756087e+02	-1.827987e+02	-7.295805e+01	-7.874119e+01	-9.694965e+01	-1.023810e+02	-8.911344e+01	-9.485562e+01	-1.757751e+02	-1.828810e+02	-1.755237e+02	-1.826637e+02	-1.063842e+02	-1.116207e+02	-9.899075e+01	-1.044002e+02	-1.757887e+02	-1.829266e+02	-1.743041e+02	-1.815040e+02	-1.165444e+02	-1.218169e+02	-1.085761e+02	-1.138464e+02	-1.738203e+02	-1.811326e+02	-1.753948e+02	-1.825238e+02	-1.275433e+02	-1.327794e+02	-1.728267e+02	-1.803602e+02	-1.189940e+02	-1.242650e+02	-1.713289e+02	-1.790546e+02	-1.391789e+02	-1.444427e+02	-1.744625e+02	-1.816952e+02	-1.303255e+02	-1.356109e+02	-1.694213e+02	-1.773388e+02	-1.726225e+02	-1.802174e+02	-1.696445e+02	-1.777875e+02	-1.522622e+02	-1.578901e+02	-1.417138e+02	-1.470139e+02	-1.671161e+02	-1.756563e+02	-1.672397e+02	-1.734923e+02	-1.737662e+02	-1.825293e+02	-1.696175e+02	-1.776634e+02	-1.552563e+02	-1.609836e+02	-1.878136e+02	-1.960839e+02	-1.849476e+02	-1.923545e+02	-1.703046e+02	-1.766842e+02	-1.696734e+02	-1.783721e+02	-2.166434e+02	-2.233569e+02	-2.061208e+02	-2.150472e+02	-1.892531e+02	-1.969191e+02	-1.261786e+02	-1.287101e+02	-2.359304e+02	-2.414775e+02	-2.472664e+02	-2.519752e+02	-2.294672e+02	-2.399652e+02	-2.095730e+02	-2.188211e+02	-4.063581e+01	-4.261503e+01	-2.688940e+02	-2.731994e+02	-2.532542e+02	-2.627855e+02	-2.334034e+02	-2.438992e+02	-2.700326e+02	-2.777441e+02	-2.567404e+02	-2.659548e+02	-2.083868e+02	-2.156528e+02	-2.656639e+02	-2.696689e+02	-2.714238e+02	-2.781328e+02	-1.640273e+02	-1.727567e+02	-6.771702e+01	-7.341205e+01	-1.744056e+02	-1.816635e+02	-1.659465e+02	-1.750790e+02	-4.380469e+01	-4.672398e+01	-6.491180e+01	-7.052510e+01	-1.680253e+02	-1.766477e+02	-1.753508e+02	-1.825508e+02	-1.776389e+02	-1.863086e+02	-1.738165e+02	-1.813481e+02	-4.648459e+01	-5.008676e+01	-5.088112e+01	-5.531678e+01	-7.543109e+01	-8.138027e+01	-8.124339e+01	-8.723377e+01	-9.097828e+01	-9.666614e+01	-1.752590e+02	-1.823820e+02	-1.134994e+02	-1.188367e+02	-1.008307e+02	-1.062190e+02	-1.240883e+02	-1.293438e+02	-1.355973e+02	-1.409374e+02	-1.687157e+02	-1.770261e+02	-1.438215e+02	-1.492234e+02	-1.571473e+02	-1.629836e+02	-1.935978e+02	-2.015524e+02	-1.724972e+02	-1.790900e+02	-2.024501e+02	-2.101642e+02	-2.271797e+02	-2.332137e+02	-1.922587e+02	-2.001488e+02	-2.549142e+02	-2.591486e+02	-2.123664e+02	-2.219660e+02	-2.607417e+02	-2.647557e+02	-2.710893e+02	-2.760174e+02	-2.385572e+02	-2.488884e+02	-2.714340e+02	-2.770852e+02	-2.571146e+02	-2.660111e+02	-4.773100e+01	-5.158000e+01	-5.967179e+01	-6.504824e+01	-5.252465e+01	-5.716190e+01	-5.846099e+01	-6.369568e+01	-1.688268e+02	-1.771121e+02	-1.735483e+02	-1.810588e+02	-1.730854e+02	-1.807180e+02	-8.406288e+01	-9.004529e+01	-9.385194e+01	-9.943336e+01	-1.034300e+02	-1.087528e+02	-1.761672e+02	-1.832985e+02	-1.751126e+02	-1.822630e+02	-1.745738e+02	-1.818488e+02	-1.107407e+02	-1.160577e+02	-1.738075e+02	-1.812314e+02	-1.722641e+02	-1.799096e+02	-1.210030e+02	-1.262142e+02	-1.476497e+02	-1.532052e+02	-1.324522e+02	-1.377542e+02	-1.707905e+02	-1.785728e+02	-1.617485e+02	-1.678432e+02	-1.678307e+02	-1.762164e+02	-1.813030e+02	-1.897904e+02	-1.720217e+02	-1.807649e+02	-1.781179e+02	-1.851437e+02	-1.987915e+02	-2.072098e+02	-2.406471e+02	-2.456823e+02	-2.202643e+02	-2.304005e+02	-2.463033e+02	-2.562770e+02	-2.628962e+02	-2.714109e+02	-1.738937e+02	-1.813994e+02	-5.171826e+01	-1.803492e+01	-1.927954e+00	-1.194667e+01	1.277916e+02	-2.208288e+01	-3.253354e+01	-3.924784e+01	-4.128139e+01	-4.026045e+01	-4.257920e+01	-4.397324e+01	-4.695149e+00	-3.285436e+01	1.072997e+02	-4.870348e+01	-4.494756e+01	1.000765e+02	3.789257e+01	1.403309e+02	-5.390651e+01	7.752058e+01	-4.956371e+01	-7.018092e+01	-1.066864e+02	7.207151e-01	-6.008701e+01	-5.502499e+01	-1.714019e+02	-1.441947e+02	-6.274190e+01	-1.781659e+02	-6.763803e+01	-1.803117e+02	-7.009530e+01	-7.324450e+01	-1.806353e+02	-1.827930e+02	-7.571764e+01	-1.832067e+02	-1.673440e+02	-6.138936e+01	-8.442952e+01	-1.827493e+02	-3.944334e+01	-1.835335e+02	-9.333669e+01	-8.613741e+01	-1.830364e+02	-1.812420e+02	-1.843245e+02	-7.954685e+01	-1.022315e+02	-9.511134e+01	-1.842262e+02	-1.839286e+02	-1.111362e+02	-1.041977e+02	-1.840565e+02	-1.824911e+02	-1.210731e+02	-1.133373e+02	-1.819918e+02	-1.836931e+02	-1.317073e+02	-1.812940e+02	-1.234542e+02	-1.799300e+02	-1.430935e+02	-1.826088e+02	-1.345039e+02	-1.782781e+02	-1.810999e+02	-1.787330e+02	-1.565021e+02	-1.456471e+02	-1.767384e+02	-1.722094e+02	-1.833413e+02	-1.785904e+02	-1.596090e+02	-1.959331e+02	-1.914932e+02	-1.754357e+02	-1.794031e+02	-2.210883e+02	-2.147041e+02	-1.961491e+02	-1.293915e+02	-2.377775e+02	-2.473684e+02	-2.397958e+02	-2.185853e+02	-4.213263e+01	-2.673520e+02	-2.608410e+02	-2.435064e+02	-2.738060e+02	-2.636161e+02	-2.140458e+02	-2.638297e+02	-2.734762e+02	-1.771872e+02	-7.434698e+01	-1.835564e+02	-1.796930e+02	-4.676159e+01	-7.150273e+01	-1.806575e+02	-1.841940e+02	-1.868759e+02	-1.838619e+02	-5.048666e+01	-5.609654e+01	-8.221532e+01	-8.788323e+01	-9.681283e+01	-1.834217e+02	-1.182013e+02	-1.059291e+02	-1.283496e+02	-1.397033e+02	-1.780313e+02	-1.478571e+02	-1.616260e+02	-2.009455e+02	-1.779364e+02	-2.090850e+02	-2.301235e+02	-1.994444e+02	-2.539722e+02	-2.218282e+02	-2.591824e+02	-2.703639e+02	-2.481163e+02	-2.718039e+02	-2.633764e+02	-5.209585e+01	-6.608467e+01	-5.800150e+01	-6.468256e+01	-1.807828e+02	-1.833683e+02	-1.834058e+02	-9.058934e+01	-9.943808e+01	-1.083651e+02	-1.846311e+02	-1.832889e+02	-1.827519e+02	-1.154858e+02	-1.821471e+02	-1.807921e+02	-1.252694e+02	-1.518637e+02	-1.365743e+02	-1.794631e+02	-1.665558e+02	-1.772484e+02	-1.900430e+02	-1.816972e+02	-1.841714e+02	-2.067011e+02	-2.414889e+02	-2.303329e+02	-2.549285e+02	-2.682731e+02	-1.837980e+02	-3.758541e+01	-3.857577e+01	-3.877723e+01	-4.013543e+01	-4.069762e+01	-4.285967e+01	-4.226489e+01	-4.496111e+01	-6.988656e+01	-7.572490e+01	-1.748400e+02	-1.820042e+02	-1.754267e+02	-1.826281e+02	-1.671594e+02	-1.757914e+02	-1.650861e+02	-1.739182e+02	-1.622015e+02	-1.702735e+02	-1.477791e+02	-1.540802e+02	-3.758616e+01	-3.933507e+01	-4.251594e+01	-4.492297e+01	-7.665562e+01	-1.834822e+02	-1.842252e+02	-1.798626e+02	-1.783314e+02	-1.742555e+02	-1.571388e+02	
SCALARS Y-Momentum float 1
LOOKUP_TABLE default